11
Properties=species:S:1:pos:R:3:forces:R:3 Coordinates=T from=T ORCA-job=T run=T Energy:=T 16.3930626=T energy=-6395.379390035526 pbc="F F F"
C        1.12886902      -0.00074160      -0.13092003      -0.01876273       0.03001707       0.00822928
H        1.87949647       2.03476077      -0.30304791      -0.01037787       0.01765714       0.00413458
F       -1.76103506       0.40493370       0.24722630      -0.00093471      -0.02960693      -0.02044288
H        1.83895792      -0.33015953       0.64044578      -0.00817992      -0.02046625      -0.01883193
C        0.92725012       1.50746434      -0.11676226       0.01133287       0.00858239      -0.01487261
H        1.48750769      -0.32749811      -1.11536333      -0.00074469      -0.01108058       0.03044511
H        0.12911894      -0.41097065       0.05844329      -0.01258698      -0.01855308       0.00952269
H        0.57957234       1.78091908       0.89473471       0.03289083      -0.00410346      -0.01094369
N       -0.05953731       1.84639651      -1.13930703       0.01064208       0.00378237      -0.00500413
H       -0.29228972       2.82955513      -1.02561241      -0.00135159       0.04137558      -0.00885041
H       -0.90294199       1.32315183      -0.78473710      -0.01062204      -0.02947486       0.00665095
