13
Properties=species:S:1:pos:R:3:forces:R:3 Coordinates=T from=T ORCA-job=T run=T Energy:=T 42.3354801=T energy=-86050.40706228258 pbc="F F F"
C        0.08337867      -0.00426729       0.06652018       0.01945926       0.01352895      -0.00360412
H        2.12803940       1.06631893      -0.13971871      -0.00494754       0.06660179       0.08794693
Br      -1.86181319      -0.48079008       0.16021306      -0.12454947      -0.13526336      -0.01055309
F        2.97334362       0.64693386      -0.27161856       0.02332539      -0.02763598       0.00246356
C        0.33625058       1.43926710       0.00762697       0.05386060      -0.03661158      -0.02130067
H        0.44945488      -0.52421622      -0.80978047      -0.01118569       0.07577323      -0.06126404
H        0.50065785      -0.42846826       0.97098547      -0.01795062       0.02065030       0.02361112
N        0.00041508       2.14881148       1.20942520       0.16099677       0.00491305       0.02978000
O       -0.46524736       3.27086440       1.18471668       0.00704438       0.02923519      -0.02449758
O        0.21533534       1.53757726       2.25471627      -0.02191026       0.01041004       0.08397594
N        0.09760207       2.09641820      -1.23977999      -0.03230205      -0.07069507      -0.03545970
O        0.27685820       3.29600680      -1.35043212      -0.01097898       0.05902730       0.02920397
O       -0.18485107       1.37242359      -2.19204780      -0.02582717      -0.03322097      -0.09348071
