11
Properties=species:S:1:pos:R:3:forces:R:3 Coordinates=T from=T ORCA-job=T run=T Energy:=T 127.6195324=T energy=-147269.90570240354 pbc="F F F"
C        1.00890408       0.00387759       0.00058042       0.03087269      -0.00693258       0.00086665
H        1.67697489       2.06117331      -0.00941980      -0.00028439      -0.04607610       0.00005685
Br      -2.15224376      -0.29327382       0.00179706       0.01731609      -0.03828809       0.00134613
Br       2.95180955      -0.33020355       0.01671775      -0.02566787       0.03008013       0.00151983
C        0.71998164       1.52490435      -0.00195365      -0.00099671      -0.03570908       0.00298182
H        0.61211979      -0.48414249      -0.88193250      -0.02388156       0.02959968       0.02105282
H        0.59761942      -0.48475533       0.87598995      -0.02813217       0.03051399      -0.02260220
C        0.05160114       1.98919240       1.22336209       0.02730608       0.01454445      -0.02533868
N       -0.31456689       2.43194106       2.21761943      -0.01120228       0.00655172       0.02863771
C        0.03706004       1.98361615      -1.22122484       0.01560129       0.02755840      -0.00193416
N       -0.33757986       2.42505911      -2.21316905      -0.00287404      -0.00330421      -0.00544413
