13
Properties=species:S:1:pos:R:3:forces:R:3 Coordinates=T from=T ORCA-job=T run=T Energy:=T 38.8507178=T energy=-7899.584820387973 pbc="F F F"
C        0.10570273       0.09213618      -0.15478391       0.00333048       0.00313460      -0.01500706
H        1.43092360       1.61405001      -0.80416461      -0.00633437      -0.01261337      -0.01271524
F       -0.19874502      -0.33129814      -1.47170190      -0.00063349       0.00321828       0.04211421
H        2.75663649       0.12276429       1.65107420       0.01017087      -0.00144033       0.01454285
C        0.51939324       1.55081540      -0.18488552       0.00644813      -0.01024876       0.00089185
H        0.92366978      -0.51856842       0.24174184      -0.02034375       0.00422978      -0.01524356
H       -0.80478298      -0.02893388       0.44477397       0.02423724      -0.00416262      -0.01370584
N        0.72618956       1.95754210       1.18575911      -0.02047593       0.00908559       0.01899265
H        1.12853246       2.88961333       1.16063046       0.00220395       0.02191891       0.02200884
H        1.47699995       1.33598269       1.56320425      -0.00450925      -0.01908467      -0.02631705
N       -0.47815102       2.43140723      -0.80027869       0.00729447      -0.00197832      -0.00712787
H       -1.29777694       2.40850156      -0.19952520       0.01576639       0.00332172       0.01917068
H       -0.75240037       2.02501381      -1.68875418      -0.00518243      -0.01812608      -0.01151228
