10
Properties=species:S:1:pos:R:3:forces:R:3 Coordinates=T from=T ORCA-job=T run=T Energy:=T 64.0037153=T energy=-87237.37085568596 pbc="F F F"
C        0.96848821       0.01292132      -0.13939648       0.01343353      -0.01142114      -0.01323630
H        1.08182151       2.02003894       0.63979677      -0.04090763       0.05118333      -0.01036559
Cl      -1.93263315      -0.36485967       1.35526384       0.02400249       0.02854075       0.00007349
Br       2.87332074      -0.14442976      -0.59691982      -0.05976262      -0.00538127       0.01364237
C        0.50414374       1.45632207      -0.09694234       0.01606376      -0.03955492      -0.03402145
H        0.41196313      -0.56396037      -0.87301149       0.04533422      -0.02058596      -0.00562019
H        0.82441683      -0.44214170       0.83623877      -0.00349755      -0.01031290      -0.02305615
H       -0.53890444       1.40570903       0.24416646      -0.01756916       0.01678307       0.04456533
C        0.58082291       2.13700919      -1.38955078       0.04385182      -0.02405231      -0.03513139
N        0.64669096       2.66209396      -2.41151945      -0.02733554       0.01521118       0.05831250
