13
Properties=species:S:1:pos:R:3:forces:R:3 Coordinates=T from=T ORCA-job=T run=T Energy:=T 42.1835815=T energy=-77931.93058122705 pbc="F F F"
C        0.37686145      -0.01488499      -0.27229440      -0.01167672      -0.02656883       0.01941990
H        1.63920401       1.58422491      -0.48378606       0.03036853       0.02708094      -0.01535168
Br      -1.50157112      -0.56738036      -0.00956470       0.01850972      -0.00366331      -0.01467016
F        2.18125271       0.26760365       1.83480418      -0.02426438      -0.03963600       0.01342764
C        0.57190505       1.48603564      -0.22363478       0.01452338       0.00146941       0.02330365
H        0.64778984      -0.41914473      -1.24690245       0.00139345       0.01992005       0.01065459
H        0.97869487      -0.41549362       0.55537938      -0.00496225      -0.01126664       0.00960469
N        0.31173999       1.95467273       1.12634113       0.00406925       0.02302606       0.02872541
H        0.66249583       2.90679848       1.19165898       0.00011930       0.02973094      -0.01995367
H        0.97805602       1.37068544       1.69348017       0.00320426      -0.02604731      -0.02931003
N       -0.19381355       2.18026769      -1.25812791      -0.00342476       0.00120702       0.01012990
H        0.04831748       3.16546069      -1.20016604      -0.02579870      -0.00541809      -0.02128233
H       -1.16772832       2.12705747      -0.96859430      -0.00063360       0.00455154      -0.00609548
