13
Properties=species:S:1:pos:R:3:forces:R:3 Coordinates=T from=T ORCA-job=T run=T Energy:=T 37.9956979=T energy=-14661.905655246826 pbc="F F F"
C        0.81911263       0.00070209       0.05833889      -0.00548124       0.02143298       0.00226845
H        1.85270858       1.88352376      -0.02371941      -0.01129118       0.00053621      -0.02529989
F       -1.63207285       0.10040329      -0.88632137       0.01283932       0.01343486       0.04216394
F        1.96585922      -0.43349625       0.74719266      -0.03363393       0.03255230      -0.01635911
C        0.81409694       1.52329083      -0.03420486      -0.02575817      -0.02040522       0.00893935
H        0.85161880      -0.40707597      -0.95189962       0.02347764       0.07677804       0.03890318
H       -0.09091868      -0.36858238       0.52492214       0.05310994       0.02386221       0.03340862
N        0.32288132       2.11590163       1.34925720      -0.13378644      -0.10247497      -0.00277591
O       -0.47813954       3.02714861       1.32482388       0.08429590      -0.01557523      -0.02847550
O        0.81794364       1.67216904       2.36489937       0.01863661      -0.01455543      -0.02996847
N        0.04954947       1.96995262      -1.11727085       0.01217569      -0.00484381      -0.00682223
H       -0.20545440       2.94041495      -0.99085069       0.01195076      -0.01296557      -0.01073114
H       -0.81096044       1.32619491      -1.15046645       0.01725345       0.00662582      -0.01506342
