14
Properties=species:S:1:pos:R:3:forces:R:3 Coordinates=T from=T ORCA-job=T run=T Energy:=T 24.7156492=T energy=-10166.16295218256 pbc="F F F"
C        1.07686385       0.06672152       0.13206607      -0.02405679       0.00591932      -0.00787892
H        1.85852215       2.06347252       0.12259675       0.02200514      -0.01292932      -0.00915961
F       -1.76854069       0.31625152      -0.42809832       0.00463592      -0.01773247       0.01341231
F        2.05834366      -0.38162854      -0.77125387      -0.00638997       0.01893852       0.02756943
C        0.87647799       1.56834013       0.05137358       0.00977821       0.00497068       0.01233773
H        0.10814643      -0.38456355      -0.11264049      -0.01953411      -0.02494193      -0.00396017
H        1.42107122      -0.23088312       1.13279391      -0.01334511      -0.00417687      -0.02553954
C       -0.02334991       1.97715143       1.22816050       0.02112409      -0.00662569      -0.01825188
H       -0.97389192       1.45276590       1.05441219       0.01833841       0.01255559       0.01716713
H        0.40087870       1.71530555       2.20919509      -0.01091872       0.00626666      -0.02360131
H       -0.19774286       3.06171148       1.21346238       0.01457674      -0.02866389       0.00831640
N        0.26110655       1.87505987      -1.24027028       0.00188749       0.00524275       0.03375494
H        0.01222362       2.86080959      -1.23178961      -0.01583615       0.00619149      -0.02124171
H       -0.63896987       1.34699144      -1.19141225       0.00358130      -0.00001172      -0.00090441
