14
Properties=species:S:1:pos:R:3:forces:R:3 Coordinates=T from=T ORCA-job=T run=T Energy:=T 19.2364601=T energy=-77496.93895676684 pbc="F F F"
C        0.17837800      -0.00705919      -0.14444885      -0.00209610      -0.03667343      -0.03005546
H        1.56130587       1.52955221      -0.21030440       0.06647901       0.07478283       0.07662338
F       -1.22679092      -0.20738906      -0.10868567      -0.01976489       0.05082519       0.03308426
Br       3.62592492      -0.30306254       0.79777862      -0.03137591       0.02864962       0.02577856
C        0.47622256       1.47266493      -0.09019188      -0.06981618      -0.13031318      -0.05272023
H        0.53446435      -0.42116761      -1.09163430      -0.00261688      -0.04899848       0.12902758
H        0.61964444      -0.53490084       0.70433472       0.01316195       0.00022844      -0.14129784
C        0.05976836       2.08367883       1.24720251      -0.00100994      -0.01139535      -0.01261924
H       -1.01794800       1.96012049       1.40329272      -0.01295141      -0.02900538      -0.00386259
H        0.58564313       1.61771634       2.08619844       0.05688634       0.00213860      -0.06815174
H        0.27845417       3.15587796       1.25899217       0.03460193       0.04849021       0.04889198
N       -0.16566453       2.10906913      -1.24797953      -0.10364762       0.08128930       0.07558540
H        0.04502071       3.10125346      -1.24172535       0.02649787      -0.01589229       0.00372855
H       -1.17009390       2.03312773      -1.11318536       0.02569287      -0.02559334      -0.09146260
