13
Properties=species:S:1:pos:R:3:forces:R:3 Coordinates=T from=T ORCA-job=T run=T Energy:=T 42.0296083=T energy=-78499.46096626174 pbc="F F F"
C        0.24011134      -0.10906550      -0.14586844       0.02550414       0.01520649      -0.00420112
H        1.65874765       1.29796896      -0.01894287      -0.01381266      -0.02938095      -0.01763421
Br      -1.65449968      -0.69402507       0.06655637      -0.01694373      -0.00275285      -0.00189072
F        2.79449153       0.66523438       0.62255379      -0.00075632      -0.01449556       0.02320138
C        0.47800234       1.37362947      -0.09970275      -0.00611710       0.02422058      -0.00394497
H        0.55413889      -0.53841100      -1.09350995       0.00826593      -0.00023336      -0.02189830
H        0.80513414      -0.56674363       0.65930249       0.01802420      -0.00197930       0.01072734
C        0.07894288       2.03267344       1.21354612      -0.00147686       0.01569300       0.01330645
H       -0.97655909       1.89210861       1.47122120      -0.02076712      -0.02889330      -0.01749323
H        0.71512434       1.59769345       1.98684541       0.01944410       0.00808286       0.01491428
H        0.28390087       3.10550099       1.17699169       0.01564884       0.02583263       0.02148382
C       -0.00457630       2.07760733      -1.27087962      -0.01685003      -0.03280425      -0.00543845
N       -0.36162558       2.65405502      -2.20522898       0.00155942       0.01968218      -0.01529610
