13
Properties=species:S:1:pos:R:3:forces:R:3 Coordinates=T from=T ORCA-job=T run=T Energy:=T 36.3485957=T energy=-91798.08447239856 pbc="F F F"
C        0.22892745      -0.09089379       0.06196773      -0.10437242       0.01158753      -0.03102345
H        1.50639199       1.53654033       0.22134504      -0.05056284       0.07481949      -0.06987690
Br      -1.60824627      -0.58412602      -0.36327658       0.00653619      -0.05558401       0.01570887
Cl       3.46147789       0.28471356      -0.75890544      -0.01094144       0.04099762      -0.04111806
C        0.42718558       1.41390248       0.07844647      -0.01590577       0.00622386       0.06500959
H        0.89832188      -0.58135552      -0.63888558       0.00332076      -0.01125410      -0.07119890
H       -0.09272439       1.83573754       0.94035027      -0.04931155      -0.03654241       0.04027212
N        0.51312599      -0.70456373       1.40975524       0.03846845       0.20086895       0.18261854
O        0.27482001      -0.02852069       2.39348056       0.03111739      -0.12899307      -0.06753048
O        0.94119119      -1.83014201       1.42541101      -0.02386020      -0.09660078       0.00807490
N       -0.01922683       1.99028359      -1.18012215      -0.04102694       0.33916928      -0.03210508
H        0.73139149       2.50382572      -1.62920370      -0.10978448      -0.18421356       0.11502648
H       -0.80751004       2.61306508      -1.02546255       0.31661441      -0.15271594      -0.12713352
