12
Properties=species:S:1:pos:R:3:forces:R:3 Coordinates=T from=T ORCA-job=T run=T Energy:=T 97.4695214=T energy=-92802.28145710447 pbc="F F F"
C        0.38509493      -0.07855467       0.17776323      -0.02135515       0.00918990      -0.04506898
H        1.70760635       1.49902153       0.67579051      -0.01455013       0.01946615      -0.06554106
Br      -1.35769026      -0.41333898      -0.58139393      -0.02561440      -0.05555284      -0.01038150
Cl       3.23544978       0.17447646      -1.34701669      -0.04974523      -0.00778689       0.00030812
C        0.68595532       1.40013857       0.30199211      -0.01346145      -0.01788490       0.03681445
H        1.14766947      -0.51847365      -0.47807482       0.01131142       0.02207032       0.04175610
H        0.69392543       1.79773687      -0.71691336       0.03577269       0.06441174       0.12142245
N        0.49250293      -0.79893825       1.50544826       0.03419870      -0.04492626      -0.00378539
O        0.85319231      -0.14100851       2.45553301       0.01148294      -0.06978017       0.06369431
O        0.25991321      -1.98439719       1.51749721      -0.00441750       0.09455576      -0.02236764
C       -0.24403555       2.14941311       1.15254007      -0.03941898       0.00947223      -0.01994171
N       -0.96554099       2.75335283       1.81462777       0.07251510      -0.02851408      -0.10652937
