16
Properties=species:S:1:pos:R:3:forces:R:3 Coordinates=T from=T ORCA-job=T run=T Energy:=T 69.0324410=T energy=-22835.235679005407 pbc="F F F"
C        0.32959433       0.00537395       0.00237727       0.00113522       0.00170323       0.01564406
H        1.64022897       1.61948610      -0.06483239      -0.01718167       0.01284996       0.01077074
Cl      -1.38240722      -0.45104742       0.13187898       0.00412596       0.01035623      -0.00855394
H        2.08538570      -0.31935065       0.90016016       0.00353379      -0.00017296      -0.01080177
C        0.53440954       1.51931638      -0.05359545       0.00175227      -0.00485582      -0.01605319
H        0.70977770      -0.47173494      -0.90242546      -0.02645736       0.00035712       0.01791196
N        1.12760443      -0.65474959       1.13069701       0.00359802       0.00664166      -0.00459955
O        0.79966972      -0.12205182       2.32999147      -0.01017716      -0.00023801       0.00329627
O        1.09719940      -1.97104404       0.99553296       0.01268121      -0.00478831      -0.01574996
N       -0.07086764       2.18304483       1.09259859       0.03462926      -0.00780257      -0.01338282
H        0.43918530       3.04288735       1.26397597      -0.01174595      -0.00265331       0.02544032
H        0.11839460       1.54268735       1.87898272      -0.01387520       0.00554089       0.02279809
C        0.00561201       2.12310451      -1.35019631      -0.00198484       0.00001138      -0.00622811
H        0.44320028       1.64726695      -2.23604551      -0.00391204       0.00004244       0.00210498
H       -1.08093101       2.01776206      -1.38648659       0.00416872      -0.02225035      -0.00656209
H        0.23676354       3.19387984      -1.38882083       0.00981663      -0.00465001       0.00145496
