15
Properties=species:S:1:pos:R:3:forces:R:3 Coordinates=T from=T ORCA-job=T run=T Energy:=T 97.3028105=T energy=-84066.01108335254 pbc="F F F"
C        0.66282583      -0.02658448       0.14714075      -0.00581452       0.00343054       0.00615262
H        1.74250914       1.79112795       0.40663058      -0.00066285       0.01001225       0.00227652
Br      -2.48885596      -0.47887160      -1.17442588      -0.00316356       0.02093220      -0.00499703
F        1.46565093      -0.47540813      -0.86463834       0.02235606       0.02376259      -0.00466303
C        0.71324819       1.49478881       0.17744406      -0.00497860       0.00086675       0.00341575
H       -0.35421706      -0.42499482       0.00971254      -0.00604117      -0.00831944       0.00628102
N        1.25465594      -0.65007265       1.40315947      -0.01595701      -0.01302184       0.00905609
O        1.58407048       0.07602641       2.31866993       0.00369469       0.00467077      -0.03190599
O        1.36014111      -1.85164599       1.38886147       0.01809618      -0.01094480       0.01380812
C       -0.13162723       2.04310795       1.24562679       0.01475935      -0.01136808      -0.02865703
N       -0.77483830       2.54033846       2.05720947      -0.01645724       0.02454009       0.02926011
C        0.27782940       2.05939167      -1.18300274      -0.00884282      -0.00404972      -0.00085033
H        0.97301519       1.73034794      -1.95666149      -0.00803748      -0.01502921       0.00605808
H       -0.72304635       1.69868309      -1.43322651      -0.00524829      -0.02119064      -0.01417312
H        0.27540746       3.15130383      -1.15206231       0.01966325      -0.00088900       0.01983527
