16
Properties=species:S:1:pos:R:3:forces:R:3 Coordinates=T from=T ORCA-job=T run=T Energy:=T 18.5874970=T energy=-12239.841074431368 pbc="F F F"
C        0.31262178      -0.06175210       0.23030465       0.01407558      -0.02439803      -0.02152676
H        1.63317721       1.54215830       0.28091874      -0.01349762       0.01781610      -0.00861033
F       -1.06651073      -0.33936468       0.08669414      -0.02098062      -0.00986931      -0.00509311
F        1.92246493      -0.19282066      -1.85958943       0.01373862      -0.03045703       0.01780189
C        0.54499284       1.44504123       0.18668608      -0.00223374      -0.00407929      -0.00088755
H        0.91259815      -0.46751430      -0.64273726       0.00175877       0.02795867      -0.02378337
C        0.72313575      -0.65053191       1.51065964       0.02025606       0.02244603       0.00425943
N        1.06139017      -1.10194416       2.51516009       0.00498970      -0.02345574       0.01485783
C       -0.16269767       2.19141087       1.31205882       0.00605426       0.00806452       0.01974112
H       -1.24772835       2.06661566       1.23207712       0.01369376      -0.00605931      -0.00244488
H        0.14630991       1.83063956       2.29893336      -0.01103237       0.00331268       0.01696881
H        0.05797337       3.26280962       1.26168128      -0.02663075       0.02419643       0.00787556
C        0.16471313       1.95326459      -1.20170766      -0.00513482       0.00917189      -0.01413463
H        0.75057763       1.35248517      -1.91147615      -0.02068118       0.00233162       0.01060608
H       -0.90841970       1.82153338      -1.38176486       0.00011526      -0.01072786      -0.00082742
H        0.39608402       3.02057750      -1.30225521       0.02365736       0.01173079      -0.00107239
