13
Properties=species:S:1:pos:R:3:forces:R:3 Coordinates=T from=T ORCA-job=T run=T Energy:=T 151.0527874=T energy=-15474.791685962344 pbc="F F F"
C        0.81542060      -0.09103671       0.12155868       0.03559011       0.05972974      -0.00400372
H        1.77491868       1.83542277       0.66705925      -0.01000935      -0.04428885       0.00708179
F       -1.75295367       0.02938952      -0.53975327       0.00534464       0.00269129       0.03006737
H        1.19980998      -0.43389439      -0.83840585      -0.07683838      -0.04130985      -0.01437810
C        0.86863510       1.40432010       0.21172493      -0.07418993       0.07276362       0.03805525
H       -0.85755360      -0.21475012      -0.21319052       0.07775689       0.00361847       0.04341106
C        1.40762742      -0.77233079       1.21721934       0.02872627      -0.09858357       0.10383325
N        1.85574562      -1.34625904       2.12085476       0.03425201       0.02376498      -0.08562620
N       -0.20696774       1.99415002       1.17099022      -0.10432750       0.07482257      -0.13559400
O       -0.62378064       3.10940305       0.93641602       0.09790455      -0.02902108      -0.04136671
O       -0.47923769       1.33614915       2.13975738      -0.01813598      -0.03836056       0.00566605
C        0.70727976       2.01750867      -1.11122437      -0.02140980      -0.04112847       0.02793861
N        0.65338184       2.43517375      -2.18031913       0.01841347       0.05815928       0.04567430
