12
Properties=species:S:1:pos:R:3:forces:R:3 Coordinates=T from=T ORCA-job=T run=T Energy:=T 41.0468802=T energy=-150325.40866246645 pbc="F F F"
C        0.93722122      -0.08059686      -0.00841009       0.00098208       0.02266157      -0.01763192
H        1.28263178       1.97670882       0.65312684       0.02706002       0.02629664      -0.01253388
Br      -2.45794631      -0.09246000       0.22124682       0.01121786      -0.01608050       0.01677533
Br       2.67961680      -0.35480560      -0.86737078       0.03131384      -0.00339705      -0.02503821
C        0.57235442       1.38646057       0.07901388      -0.01874312       0.02269742       0.00125017
H        0.18289762      -0.60933003      -0.59135009      -0.01937950      -0.02229750       0.02159305
H       -0.43723730       1.43779951       0.50764013      -0.03836630      -0.01494102       0.01195137
C        1.02753095      -0.63205375       1.34066095      -0.00218780       0.00519653      -0.02836528
N        1.17443281      -1.02928672       2.40858253      -0.01455214      -0.03391940       0.02803997
N        0.44840629       2.04269636      -1.25662018      -0.02165155       0.01851584       0.00280911
O        0.49931595       3.25579732      -1.24801314       0.02259506       0.00372265      -0.02246955
O        0.26707293       1.35590240      -2.23239794       0.02564092      -0.00822026       0.01873171
