15
Properties=species:S:1:pos:R:3:forces:R:3 Coordinates=T from=T ORCA-job=T run=T Energy:=T 35.4148755=T energy=-14032.252577127287 pbc="F F F"
C        0.14598979      -0.04830455       0.18347712       0.01578085      -0.00225251       0.00202914
H        1.63392682       1.40936301       0.23321067       0.02560424       0.00586597       0.04516580
F       -1.20704402      -0.20513881      -0.14448692       0.06639254      -0.03527041       0.00211137
H        2.34685523      -0.27254950      -1.45007192      -0.02642744      -0.01325564       0.00370145
C        0.54403328       1.41240967       0.11034252       0.00101631      -0.00809961      -0.01340477
H        0.83956384      -0.50435353      -0.58728135      -0.05967512       0.06641137      -0.03311148
C        0.38720871      -0.74176869       1.45226187       0.00049666      -0.04095240       0.01978645
N        0.58232167      -1.38716788       2.38417923      -0.02821525       0.02213079      -0.02964596
N       -0.02150135       2.22594486       1.25458727      -0.06154934      -0.05840754      -0.03649989
O       -0.70378095       3.19662519       0.99591573       0.00951672       0.00775165       0.01077214
O        0.24834358       1.86110486       2.37964625       0.04256627       0.06454639       0.00751359
C        0.18491110       1.99968316      -1.23477058      -0.01995192       0.00183257      -0.01263414
H        0.75859947       1.42943741      -1.97376892      -0.00524795      -0.01113459       0.03148530
H       -0.88419514       1.91312648      -1.42809504      -0.01124971      -0.00109384      -0.01466703
H        0.46515141       3.05269848      -1.28812220       0.02048312      -0.02243046       0.00260695
