12
Properties=species:S:1:pos:R:3:forces:R:3 Coordinates=T from=T ORCA-job=T run=T Energy:=T 132.8605877=T energy=-92256.61719691704 pbc="F F F"
C        0.85530475      -0.06232235       0.14178922       0.00624045       0.00580379       0.00039583
H        1.74530921       1.87679643       0.42932826      -0.03323850       0.00502090       0.01013025
Br      -2.26898897      -0.42141614      -0.87459870       0.00590071       0.00293608       0.00982608
Cl       2.11744939      -0.55557694      -1.02485720      -0.01467064       0.00196258      -0.01008594
C        0.75721806       1.47906362       0.16568987      -0.01587603      -0.00009288       0.00535773
H       -0.12160621      -0.46500898      -0.20322977       0.01175377      -0.02394783      -0.00826327
C        1.20345758      -0.57652394       1.46166930       0.01825909      -0.02636195       0.00912699
N        1.49051994      -0.98165123       2.49837860      -0.00449685       0.01441171      -0.00232523
C       -0.17599891       1.94483822       1.20451461       0.01654298      -0.01076087      -0.02523362
N       -0.81732018       2.34077888       2.07007813       0.00589395       0.02788104      -0.01128019
C        0.42063158       2.05355714      -1.14748406      -0.01966535       0.02058700       0.02276054
N        0.25582863       2.59438419      -2.14630134       0.03230231      -0.01390471       0.01878829
