14
Properties=species:S:1:pos:R:3:forces:R:3 Coordinates=T from=T ORCA-job=T run=T Energy:=T 61.9107405=T energy=-33293.746642502825 pbc="F F F"
C        0.20711846      -0.11724849       0.06461414      -0.00342786      -0.02474965       0.00761921
H        1.60340088       1.42353142       0.04363716       0.00632628       0.00080580      -0.00256984
Cl      -1.53225375      -0.47624082      -0.28351299       0.03526979       0.00059914       0.00040221
Cl       3.37106864      -0.04500523      -0.58663017       0.00771773      -0.02030767      -0.02397365
C        0.50289052       1.39110517       0.06719873       0.00838027      -0.00196954      -0.00499165
H        0.81648045      -0.58940412      -0.70866236      -0.03129882      -0.00207008       0.02610343
C        0.52968986      -0.72158948       1.35793288       0.02329548      -0.00223438      -0.00149650
N        0.71690316      -1.17532746       2.39667423      -0.00299343      -0.01230457       0.00824802
C       -0.04820618       2.14297983       1.27759635      -0.01586604      -0.00261343       0.00835910
H       -1.13366891       2.03930321       1.35783634      -0.01101128       0.01056895      -0.01804045
H        0.40761633       1.75296332       2.19017623      -0.01069159       0.01584917       0.00098301
H        0.19339738       3.20491985       1.19823039      -0.00859502      -0.01367724       0.01751366
C        0.03262177       2.00126244      -1.17852746       0.00357917       0.04162225       0.01325085
N       -0.35235067       2.53419144      -2.12161737      -0.00841657       0.01000835      -0.04455166
