12
Properties=species:S:1:pos:R:3:forces:R:3 Coordinates=T from=T ORCA-job=T run=T Energy:=T 52.8158021=T energy=-21414.0649149424 pbc="F F F"
C        0.13567665      -0.11289002       0.16869534       0.00736446      -0.01385334      -0.00080713
H        1.20766293       1.63663593       0.67287333       0.00063400       0.00509385       0.00012880
F       -1.15087416      -0.52592396      -0.16843115       0.00511117      -0.01228920      -0.00926334
Cl       3.02957529       0.65390904      -1.61236996      -0.02552223      -0.00573394       0.01077650
C        0.22724316       1.40207958       0.23241180       0.00460234      -0.00754878      -0.00906621
H        0.84023885      -0.48593186      -0.58166514       0.01609687       0.01198273      -0.00867308
H       -0.55743994       1.76193843       0.90943038       0.00435378      -0.00264029      -0.00712047
C        0.44800533      -0.71367800       1.47932260       0.02171747      -0.00311265       0.01834188
N        0.66392508      -1.16899776       2.51235500      -0.00588229      -0.01246245       0.02120092
N        0.03294404       1.95316000      -1.09738132      -0.00063621       0.01674815      -0.00274992
H        0.87960989       1.73129947      -1.62520584      -0.00461836      -0.01130546      -0.00415599
H        0.00363204       2.96283459      -1.02377311      -0.00217347       0.02218797      -0.00622973
