12
Properties=species:S:1:pos:R:3:forces:R:3 Coordinates=T from=T ORCA-job=T run=T Energy:=T 40.6067955=T energy=-15665.114656215586 pbc="F F F"
C        0.95168256      -0.09093999       0.11913016       0.00650827      -0.12737849       0.03513945
H        1.81156835       1.84070976       0.50246937      -0.04179299       0.04913294       0.06747518
F       -1.39229958       0.48632620      -0.31067980      -0.03251369       0.01519048      -0.04523315
F        2.20201514      -0.35782656      -0.49601374      -0.10287288      -0.03071516       0.11974596
C        0.85044777       1.42254637       0.17726330       0.14082919      -0.15933076      -0.06610650
H        0.10341033      -0.42147865      -0.49820198      -0.00647047       0.05750623       0.09916593
H        0.58380578       1.78524098      -0.80765870      -0.02785787      -0.02528357       0.03183397
C        0.94243914      -0.81660249       1.40413983       0.03466014       0.02661512      -0.12048308
N        0.98415430      -1.48491715       2.33959249       0.05590029       0.04435000      -0.10832617
N       -0.16584419       1.98888055       1.10348884       0.18889675       0.02128077       0.12011371
O       -0.61199561       3.06879771       0.78268602      -0.15299198       0.03765313       0.05911432
O       -0.31124236       1.46977737       2.19061821      -0.06234544       0.09586702      -0.19659237
