16
Properties=species:S:1:pos:R:3:forces:R:3 Coordinates=T from=T ORCA-job=T run=T Energy:=T 55.2320113=T energy=-79569.41612793748 pbc="F F F"
C        0.04954032      -0.15293212       0.05182708       0.00268455       0.04101546       0.00809015
H        1.62517500       1.18719489       0.00872772      -0.02298301      -0.01721128       0.01018769
Br      -1.95153984      -0.38668493       0.02680317       0.00756806      -0.00045953       0.01847541
F        2.94335514       0.66178347       0.53423425       0.00766567       0.01701764       0.03236103
C        0.46593989       1.30729599      -0.01477493       0.03276988       0.02039504       0.00059988
H        0.34963276      -0.64356417      -0.87401151      -0.01737254       0.00251484       0.01567672
C        0.63997129      -0.87665229       1.24396563      -0.00401618       0.01535068      -0.02558871
H        1.71127883      -0.61150565       1.21900511      -0.01434462      -0.00988729      -0.00735098
H        0.20392462      -0.52722315       2.18474171      -0.01849957      -0.01540061      -0.02967322
H        0.48143682      -1.95568551       1.16624870       0.00257533       0.01043021       0.00486727
C        0.12416676       2.14149127       1.21772929       0.00779330      -0.00949089       0.00146343
H       -0.93828842       2.10739856       1.48291307      -0.02058512      -0.03112562      -0.02750284
H        0.72218040       1.77463250       2.05286913       0.03313539       0.00122266       0.01647610
H        0.40299837       3.18552880       1.05520457       0.00598121      -0.00009237      -0.01470033
C        0.04522130       1.95157075      -1.24838981      -0.01522062      -0.02279939      -0.01859574
N       -0.25345367       2.48490745      -2.22685657      -0.00583924      -0.00618528       0.00883258
