16
Properties=species:S:1:pos:R:3:forces:R:3 Coordinates=T from=T ORCA-job=T run=T Energy:=T 44.6174129=T energy=-31853.957747920966 pbc="F F F"
C        0.05761271      -0.07482001       0.15509871       0.00729841       0.00370671       0.00501677
H        1.58836372       1.32344409       0.13255796       0.03760526       0.00510239       0.00778264
Cl      -1.75349268      -0.22527080       0.00402785      -0.01234533      -0.00148039      -0.00461488
Cl       3.25068834      -0.21925001      -0.96377019      -0.02880403       0.01750184      -0.00959935
C        0.49225222       1.38989832       0.09155367       0.02963156       0.00114064      -0.00182179
H        0.47385226      -0.56097681      -0.72634190      -0.01851786       0.00270854      -0.00483256
C        0.52990315      -0.78847092       1.40208422      -0.00466518      -0.00538906       0.00516134
H        1.62355049      -0.75579572       1.40466582      -0.01294520      -0.01108152      -0.00049964
H        0.13620235      -0.32013787       2.30918448       0.00344345       0.01358876      -0.00966099
H        0.21662508      -1.83427775       1.38518386       0.00428730      -0.00425070       0.00060975
C        0.02933845       2.15913679       1.25274275      -0.02784925       0.00385796      -0.00082329
N       -0.32786385       2.77828146       2.15516872       0.00739812      -0.00659353      -0.01438028
C        0.12969757       2.08506975      -1.21981649       0.00026223      -0.00307837      -0.00430683
H        0.55189039       1.50824421      -2.04540924       0.01995841      -0.01293971       0.00620374
H       -0.95165642       2.16942128      -1.34827163      -0.01655162      -0.01361787      -0.00372889
H        0.56590796       3.08573068      -1.25498935      -0.00536836       0.00911955       0.01534998
