14
Properties=species:S:1:pos:R:3:forces:R:3 Coordinates=T from=T ORCA-job=T run=T Energy:=T 41.4900699=T energy=-78855.20508260035 pbc="F F F"
C        0.65030844       0.00394430       0.14260274       0.00741322       0.04700782       0.00183018
H        2.08625073       1.57014988       0.62780090       0.01288435       0.00563976       0.02193196
Br      -2.54526122      -0.71724102      -1.57913506       0.04292189       0.00865379       0.00167021
H        1.19770991      -0.32208464      -0.75389347      -0.08059068      -0.02614647       0.09406161
C        1.04541298       1.46380918       0.30095741       0.02215897       0.00345488      -0.02944724
H       -0.40941230      -0.08239182      -0.13122447       0.03600411       0.01203893      -0.04062242
H        0.91840266       2.02388948      -0.62321491      -0.03951197      -0.04040003      -0.03148061
C        0.98318768      -0.91375888       1.31695025       0.00219089       0.05901879      -0.00082901
H        1.98355892      -0.71878557       1.72460472       0.03513714      -0.02571432      -0.03964812
H        0.27001476      -0.78098616       2.12998631       0.00040822      -0.00012147       0.01645070
H        0.94375669      -1.96031000       0.99917031      -0.02944765       0.06082881       0.00441814
N        0.27809721       2.26396107       1.31933517      -0.01596026       0.03088334       0.01598830
O        0.06570130       3.43002082       1.05157652       0.01951637      -0.11198480       0.02673373
O       -0.02312618       1.73446954       2.36686502      -0.00446204      -0.02417048      -0.02430528
