16
Properties=species:S:1:pos:R:3:forces:R:3 Coordinates=T from=T ORCA-job=T run=T Energy:=T 91.4171450=T energy=-22047.53996473893 pbc="F F F"
C        0.70089818      -0.07120221       0.04926426      -0.02401772       0.02014316       0.02205324
H        1.87612383       1.68251257       0.12932350      -0.01943514       0.03229735       0.02341143
Cl      -2.67412740      -0.25656206      -0.41970826       0.01091381       0.03663854      -0.02862053
F        1.72727158      -0.48816297      -0.83334456      -0.04906358      -0.02390247      -0.01054365
C        0.80175789       1.46262284       0.05858839       0.00792597      -0.02014963       0.00542114
H       -0.25836635      -0.38056762      -0.37717655       0.04541670       0.00223526       0.00467483
C        0.92147435      -0.72904600       1.38925151       0.00858964       0.00720791      -0.02236358
H        1.83262560      -0.36268539       1.87949490      -0.05198134      -0.01899175      -0.02268096
H        0.05811521      -0.53795628       2.03147759       0.04106758       0.01471022       0.00226010
H        1.00322945      -1.80906383       1.24877629       0.01672134       0.00215664       0.00061506
C        0.20295050       2.07003964       1.25271455       0.04071546      -0.02346493      -0.00155497
N       -0.17952420       2.58748573       2.20593076      -0.04059934       0.02454738       0.01160312
C        0.23867417       2.06897708      -1.22862105      -0.00004924      -0.01201963      -0.01650028
H        0.81211503       1.67978902      -2.07099408      -0.01695696      -0.04835084      -0.06581270
H       -0.80858561       1.78249063      -1.35182463      -0.02582446      -0.02385374       0.04399320
H        0.32041665       3.15882685      -1.23166415       0.01414148       0.01946824       0.03621412
