16
Properties=species:S:1:pos:R:3:forces:R:3 Coordinates=T from=T ORCA-job=T run=T Energy:=T 68.9190660=T energy=-79571.02296638286 pbc="F F F"
C        0.06159090      -0.08171958       0.08290860      -0.01940747       0.06581492      -0.03026546
H        1.59452042       1.36807885      -0.03178992      -0.01850752      -0.01097144      -0.05292281
F       -1.34711766      -0.11789523       0.00107284      -0.08591722      -0.02728526       0.00270865
Br       3.80294402      -0.07021573      -0.19431367      -0.02369995       0.01473535       0.03633063
C        0.49574461       1.38656697       0.04314733       0.00402621       0.03575086      -0.02439481
H        0.44431538      -0.58085749      -0.81200946      -0.01203639       0.02019710       0.02295503
C        0.48320495      -0.83398492       1.31908515       0.02937136       0.04308659      -0.05916763
H        1.57454310      -0.87100000       1.36016286       0.03937716      -0.00883356      -0.00591053
H        0.09315228      -0.35849764       2.22152030      -0.04816258      -0.02761614       0.05262981
H        0.08631784      -1.85023406       1.26289329       0.03168705      -0.02579190       0.03626453
C        0.06077469       2.19943913       1.26808741       0.02139222      -0.02673579      -0.01269430
H       -1.01969986       2.12542060       1.42630195       0.04566184       0.00732793      -0.02026363
H        0.57329056       1.83155061       2.15928623       0.00096566       0.01932540      -0.00658005
H        0.32580450       3.25281963       1.14307847      -0.03178157      -0.03990611       0.00312469
C       -0.03895742       2.00589302      -1.17903849       0.03497486      -0.07934764       0.04914964
N       -0.48425283       2.49239943      -2.12183596       0.02016401       0.05515248       0.01108413
