14
Properties=species:S:1:pos:R:3:forces:R:3 Coordinates=T from=T ORCA-job=T run=T Energy:=T 61.8682969=T energy=-78308.71495979278 pbc="F F F"
C        0.16394499       0.06458544       0.15440869      -0.03243726      -0.04649880       0.02608449
H        2.86591787       0.81010961      -0.37556200       0.01879231       0.01833127       0.00650292
Br      -2.48469488      -1.50698345      -0.32728206       0.04548396      -0.01675539       0.01199941
H        3.60568865       0.87585961      -0.41525671       0.00258111      -0.01384761      -0.00284393
C        0.13954799       1.41451952       0.10743641      -0.06641489      -0.06877288       0.02824747
H        0.07857670      -0.46927190      -0.78471111       0.02278259      -0.05255295       0.02082402
C        0.41637745      -0.73017978       1.39036748      -0.01753445       0.00328828       0.00218602
H        1.50614619      -0.83450972       1.51020354      -0.09720635      -0.08178120       0.02585834
H        0.02671047      -0.23972654       2.28553616       0.02115578       0.04952929      -0.04616895
H       -0.05273831      -1.71170214       1.30625089       0.06966060       0.08480357      -0.06608406
C        0.20208968       2.20518007       1.30425827       0.06816247       0.05018648       0.05477806
N        0.27247887       2.81222924       2.28241331      -0.01126125      -0.03987452      -0.13054952
C        0.04208780       2.10546251      -1.14528694      -0.04241443       0.24045523      -0.08158211
N       -0.00091070       2.68748418      -2.14016830       0.01692737      -0.12962922       0.15447986
