16
Properties=species:S:1:pos:R:3:forces:R:3 Coordinates=T from=T ORCA-job=T run=T Energy:=T 53.1820149=T energy=-18775.698650173472 pbc="F F F"
C        0.49695874      -0.04045513       0.01591079      -0.01428185      -0.01366575      -0.04209820
H        1.08811962       1.62871447      -1.16759209      -0.01415959      -0.00236154       0.01349976
Cl      -0.34308200      -0.79537410      -1.42923926      -0.03442694       0.03351464       0.00289844
H        3.45261464       0.16828523       0.58959196       0.01911598       0.02257089       0.00579453
C        0.58684936       1.48247721      -0.19600122       0.01634158      -0.02084545       0.01047979
H        1.52691265      -0.42279198       0.00062192      -0.00566453       0.03063197       0.00526461
C       -0.21849539      -0.45693240       1.27960650      -0.00679152       0.01118912      -0.02639643
H        0.31870376      -0.01297697       2.12036306      -0.01889693      -0.02747222       0.00305755
H       -1.25401350      -0.09980768       1.29196758      -0.01776554      -0.00621758       0.02184637
H       -0.22909949      -1.54472378       1.38673260       0.02726034       0.02077196       0.00315648
N        1.34592030       1.98818448       0.92765059       0.02003890       0.00024292       0.01917808
H        1.56021115       2.96268537       0.74543718       0.01866864      -0.00017777      -0.02997557
H        2.24438942       1.46209773       0.94559699       0.01423436      -0.01762077       0.02253160
N       -0.67604187       2.21433802      -0.25275922       0.01801366      -0.02866171      -0.01026264
H       -1.13317262       2.10857866       0.64757945       0.00006741       0.02109134      -0.03358925
H       -1.27804491       1.80793992      -0.96102231      -0.00775167      -0.03702067       0.01844195
