18
Properties=species:S:1:pos:R:3:forces:R:3 Coordinates=T from=T ORCA-job=T run=T Energy:=T 14.8389874=T energy=-78130.16003000257 pbc="F F F"
C        1.07385974      -0.00170239       0.04552085       0.08573658       0.95235910       0.07070778
H        1.89850293       1.93574891       0.17596866      -0.11494056       0.04311748       0.21429407
Br      -3.01103593      -0.41210604       0.63093049       0.15977636       0.04729252      -0.04218342
F        2.43574891      -0.17094470      -0.37913139      -0.35813973      -0.22829574      -0.02689908
C        0.87201054       1.55189644       0.08390643       0.18124618      -0.35848536      -0.10600856
H        0.47680360      -0.41905980      -0.74677791      -0.36622755      -0.16638626      -0.43905072
C        0.88973086      -0.82751502       1.30561812       0.73367595       0.03739991      -0.04476415
H        1.88668912      -0.81585071       1.79174656      -0.56263906      -0.19663833       0.14945199
H        0.11958826      -0.46226910       1.98131511      -0.07219983       0.13033698      -0.10168082
H        0.60126812      -1.85157506       1.03596223       0.25513012       0.13774530       0.11843882
C       -0.01493563       2.07638384       1.20902288       0.11420565       0.00722539       0.12397963
H       -1.05626814       1.78436661       1.00807275       0.12200129       0.08389978       0.29100546
H        0.28047839       1.68336312       2.18785455      -0.06355117      -0.00837647      -0.04426861
H        0.07182895       3.17313738       1.28274641      -0.15740456      -0.19027848      -0.16456897
C        0.30292920       2.05154109      -1.25237250       0.08721353      -0.06326258       0.00488162
H        0.77224927       1.55705083      -2.10563017       0.12139920      -0.03360355      -0.05665903
H       -0.76517557       1.83020211      -1.28498319      -0.11788763      -0.04118661      -0.09230065
H        0.43384402       3.13552885      -1.39061701      -0.01925441      -0.15043032       0.16556929
