14
Properties=species:S:1:pos:R:3:forces:R:3 Coordinates=T from=T ORCA-job=T run=T Energy:=T 97.2880891=T energy=-10410.122212197584 pbc="F F F"
C        0.61544521      -0.04706899      -0.24559859      -0.00611156      -0.00186308      -0.01391627
H        1.27181535       1.77042174      -1.17515826      -0.00149559       0.00645682      -0.00922885
F       -0.09898400      -0.60401035      -1.31588561       0.02386306      -0.02090486      -0.00459067
H        2.50675262       0.08995340       2.10063289       0.00546970       0.01619234       0.00523226
C        0.57853233       1.48819119      -0.37365357       0.01265175       0.00739662       0.01821286
H        1.65750571      -0.37234099      -0.37072572      -0.01330025      -0.01765891       0.02465138
N        0.03902349      -0.46595359       0.99556756       0.01182743      -0.00172190      -0.03187167
H        0.81841402      -0.33013852       1.67709289      -0.00463161      -0.01599473      -0.01409662
H       -0.08123564      -1.47337061       0.93586829      -0.02412182      -0.00091862      -0.00659867
N        0.96655832       2.18536613       0.84497035       0.01843085       0.00963753       0.02539712
H        1.78711278       1.68988570       1.22897729       0.03590749      -0.00197044      -0.00085292
H        0.25354880       1.97835761       1.53852875      -0.03265148       0.01419928      -0.00187332
C       -0.75302760       1.94780201      -0.81211670      -0.03980963       0.01061018      -0.00772374
N       -1.77617698       2.34008595      -1.16196735       0.02240355      -0.01311804       0.01193495
