16
Properties=species:S:1:pos:R:3:forces:R:3 Coordinates=T from=T ORCA-job=T run=T Energy:=T 59.7130293=T energy=-15731.467877590394 pbc="F F F"
C        0.99959670      -0.07140110      -0.03187452       0.00461732      -0.03130015       0.00140502
H        1.67692606       1.88689495       0.45776036      -0.00817818       0.00330108       0.01282632
F       -1.47690396       0.16645022       0.15962001      -0.00379130       0.00082687       0.00138098
F        2.28591885      -0.11904557      -0.67311257      -0.00423224       0.00818089       0.00131023
C        0.73718182       1.43161358       0.11813432       0.01906877      -0.01898971      -0.00558629
H        0.28798885      -0.46721294      -0.75000556       0.00008279       0.00764536      -0.01076269
N        1.09163095      -0.83091024       1.16831392       0.00285796      -0.02288194       0.00997799
H        0.86331883      -1.78984193       0.93302271      -0.00911631       0.02279684       0.01129770
H        0.34252614      -0.49956604       1.76662069       0.01349222      -0.00815112       0.00570956
N       -0.23571745       1.85314803       1.20155245       0.00597405       0.00375216      -0.01307032
O       -0.92888575       2.82095202       0.97857597       0.01163892      -0.00859014       0.01017005
O       -0.10149820       1.37096620       2.31367200      -0.01365643       0.02144315      -0.02214863
C        0.27532209       1.98472725      -1.21375711       0.00884777       0.00464567       0.01237454
H        0.94754840       1.61898118      -1.99486556       0.00461222       0.00652474       0.00949237
H       -0.73176190       1.58490634      -1.35146459       0.01586234       0.00385581       0.00254632
H        0.26585464       3.07494317      -1.22740402      -0.02215940       0.00813602      -0.00842747
