16
Properties=species:S:1:pos:R:3:forces:R:3 Coordinates=T from=T ORCA-job=T run=T Energy:=T 49.5879386=T energy=-83062.6701683458 pbc="F F F"
C        0.46484428       0.11320096       0.00655209      -0.07058335       0.00736696      -0.02602652
H        1.46212147       1.97294138       0.05421158       0.00877701       0.05433414      -0.00156428
F       -0.88535608      -0.27846266      -0.20070366      -0.07231693      -0.04985651       0.02719499
Br       3.12482121      -2.62667596      -0.29422906      -0.02067271      -0.03998933      -0.02516922
C        0.42290977       1.64495665       0.10714242       0.02418054       0.00799181      -0.01615877
H        1.02086593      -0.18941634      -0.88490753       0.02497585       0.04560190       0.05791307
N        1.03691058      -0.47524479       1.14571860      -0.05392101       0.08709261      -0.00617086
H        1.58802177      -1.29811574       0.87997258       0.01285782      -0.02479288       0.09147406
H        0.34126111      -0.70161501       1.84503809       0.04112848       0.05637971      -0.05309358
C       -0.28324384       2.20824657       1.32130822       0.02205279      -0.01392065      -0.05968774
H       -1.33834185       1.92844912       1.31433880       0.06504377      -0.01582089       0.07062750
H        0.20468205       1.82871237       2.22365321      -0.04207047      -0.06204437      -0.09902940
H       -0.21556360       3.29897240       1.32936846      -0.06263571      -0.04078330       0.01924004
N       -0.19789292       2.17582219      -1.17131463       0.07896464       0.02760690       0.01132478
O       -1.21831341       2.82958803      -1.11035718       0.03323828      -0.05516610       0.04552676
O        0.38839492       1.91143359      -2.19808001      -0.01222558       0.01176109      -0.03546076
