14
Properties=species:S:1:pos:R:3:forces:R:3 Coordinates=T from=T ORCA-job=T run=T Energy:=T 155.1550199=T energy=-22919.461797584798 pbc="F F F"
C        1.04252641       0.06411520      -0.03849976      -0.02559501       0.09643476       0.06037416
H        1.71671256       2.07477666       0.22564537       0.01674828      -0.01262764      -0.03728430
F       -1.41571021      -0.32456446       1.30444354      -0.02323427      -0.01251771       0.00246124
Cl       2.60430784      -0.23543104      -0.95487499      -0.01193511      -0.02437123      -0.01473830
C        0.77363155       1.58742709      -0.04380666      -0.01134964       0.00076755      -0.00515656
H        0.27591707      -0.45622928      -0.62308753       0.05338138       0.01295765       0.08184308
N        1.16743624      -0.38786669       1.31344220       0.00193777      -0.04368830      -0.01562626
H        1.49814651      -1.34564243       1.27602634       0.01551643      -0.06012687       0.05440030
H        0.14864849      -0.45114431       1.59063156       0.05403242       0.02712784      -0.03307134
N       -0.26915051       2.01791454       0.87075905       0.02537342      -0.03642092      -0.03067761
H        0.16795123       2.10364091       1.77862369       0.03819994      -0.00330693       0.07743845
H       -0.93071241       1.21976012       0.99042384      -0.10326871      -0.01942233      -0.03045400
C        0.44244914       2.02000387      -1.41784764       0.02119096       0.01755141       0.02307266
N        0.18116494       2.34651395      -2.48845586      -0.02313168       0.06246824      -0.11290613
