17
Properties=species:S:1:pos:R:3:forces:R:3 Coordinates=T from=T ORCA-job=T run=T Energy:=T 38.1919692=T energy=-75862.41058298602 pbc="F F F"
C        0.18623063      -0.10282980       0.08101054       0.20276208      -0.13278934      -0.10132644
H        1.56725788       1.39701332       0.07784709       0.04800587       0.03458259      -0.11106720
Br      -1.97488571      -0.42281101       0.33682054      -0.20962206       0.03915695       0.02072878
H        3.29108619      -0.48044809       0.59965001      -0.18268929       0.09362583       0.06141622
C        0.46468456       1.38719151       0.03251348       0.05892729      -0.05546744       0.00811690
H        0.18162354      -0.56057872      -0.92517664       0.02200125       0.06753345       0.34849453
N        0.87835544      -0.71303132       1.09790967      -0.16580901      -0.17362402      -0.16783949
H        1.99064820      -0.54602529       0.92837425       0.21357156       0.07165133       0.11135340
H        0.76528110      -1.72216923       1.06670908       0.00314931       0.05562145      -0.12199980
C       -0.04225645       2.14334262       1.25709240       0.04529522      -0.01258753      -0.00517250
H       -1.13167850       2.26783620       1.22007552       0.11784657       0.06240972      -0.03074070
H        0.19976246       1.58978440       2.16621955       0.05111607      -0.00499727      -0.01535627
H        0.44265952       3.12782760       1.30320898      -0.14273732      -0.03114645       0.05950045
C       -0.00001134       2.03361351      -1.26580008      -0.01841333      -0.07520355       0.00337755
H        0.42719340       1.52892517      -2.13877232       0.03435574       0.01840335      -0.00125063
H       -1.09067924       1.96334310      -1.34588431       0.01651112       0.11917569      -0.02038729
H        0.30316859       3.08804941      -1.30858588      -0.10438807      -0.07713213      -0.00203612
