16
Properties=species:S:1:pos:R:3:forces:R:3 Coordinates=T from=T ORCA-job=T run=T Energy:=T 40.0278047=T energy=-80361.45908626122 pbc="F F F"
C        0.96843746      -0.12161362      -0.12396534      -0.08725086       0.00589686       0.04740098
H        1.87475506       1.80423094       0.33332913       0.05156172      -0.02297848       0.02865469
Br      -2.44980976      -0.62846433      -0.04732269      -0.04761764      -0.01649149      -0.00541917
H        1.90298602      -0.29554891      -0.67409318       0.07207375       0.03249466       0.00021448
C        0.88941104       1.42327682       0.04923700       0.04319598       0.01069765      -0.04347928
H        0.14221525      -0.41681530      -0.77313228      -0.00791635      -0.00841011      -0.00256175
N        0.90511464      -0.97377241       1.03982288       0.01255524      -0.01330462       0.05315953
H        1.34529989      -0.53809573       1.84036676      -0.03551387       0.02494227      -0.03730755
H       -0.08045492      -1.09371486       1.26642366       0.01677439      -0.02474357      -0.03411872
N        0.05531843       1.86812273       1.22990922      -0.00881176       0.03716569      -0.00211559
O       -0.90246396       2.57657892       1.04193227      -0.00436319      -0.03018441       0.03370319
O        0.46517344       1.54081054       2.33120529       0.02191157      -0.00739349      -0.01096215
C        0.39041943       2.07715062      -1.22078579      -0.01586298       0.01253580      -0.02829901
H        1.00688762       1.74050740      -2.06045795       0.00719380      -0.00823534       0.01147221
H       -0.64199873       1.77245541      -1.39962189      -0.02443165      -0.01596672      -0.01775747
H        0.43385079       3.16729284      -1.17198127       0.00945077       0.00679012       0.00704405
