15
Properties=species:S:1:pos:R:3:forces:R:3 Coordinates=T from=T ORCA-job=T run=T Energy:=T 50.3166287=T energy=-80007.53394168158 pbc="F F F"
C        0.80727826       0.03076118      -0.01269808      -0.00668799       0.05621183       0.10122061
H        1.91896694       1.80265729       0.44529039      -0.00487681      -0.03218126       0.07702185
Br      -2.27461478      -1.49446747       0.68818890       0.01648279      -0.04716464       0.07516992
F        1.74970985      -0.35909264      -0.98741208       0.03222563      -0.01131570       0.00022095
C        0.90260817       1.55761051       0.11176471      -0.03200798       0.08605566       0.01925344
H       -0.18403074      -0.26958088      -0.35210854      -0.08441336       0.03924368      -0.10974856
N        1.07207598      -0.60452977       1.23500284       0.01109189       0.00943029      -0.02429924
H        2.00994692      -0.97991786       1.24026307       0.02970674       0.00532907       0.03089460
H        0.38745218      -1.33959525       1.39385925      -0.02504229       0.02734499      -0.07535134
C       -0.13086835       2.06810692       1.13051246       0.04268554      -0.00095866      -0.03737509
H       -1.11372563       1.62724154       0.92422907       0.10104360       0.05893241       0.04746702
H        0.17932251       1.74396641       2.12689043      -0.09645377      -0.02106638      -0.09940369
H       -0.21188547       3.16159627       1.11311663       0.04361522      -0.12071550      -0.02670220
C        0.74862182       2.22886664      -1.18791635       0.04723199      -0.01565120       0.05912620
N        0.66849637       2.81671479      -2.17368325      -0.05398746      -0.03496840      -0.01912437
