11
Properties=species:S:1:pos:R:3:forces:R:3 Coordinates=T from=T ORCA-job=T run=T Energy:=T 14.7722682=T energy=-32769.06965577025 pbc="F F F"
C        0.88613946      -0.09111642      -0.09016658      -0.01420844       0.00545091       0.00628939
H        1.65528955       1.81792299      -0.69834677      -0.02272114       0.03539012       0.03175581
Cl      -2.21340947       0.31417005       0.95076100       0.00028313       0.00475985       0.00647437
Cl       2.30500896      -0.61867081       0.86859101       0.01154311      -0.02890477      -0.00055912
C        0.79324290       1.40349681      -0.17340590       0.01977836      -0.00300936      -0.00718885
H       -0.01515167      -0.53163328       0.33862672      -0.01596644       0.01012122       0.01667599
H        0.72680693       1.79901693       0.84120167      -0.03895382      -0.01787220      -0.04429536
H       -0.14148238       1.65953523      -0.67704399       0.03530834       0.01143569       0.01227572
N        1.07227630      -0.71652096      -1.46347607       0.03827950      -0.05430530       0.01281822
O        1.65921121      -0.07034548      -2.30613433      -0.03996921      -0.03303127      -0.03318701
O        0.64181379      -1.83532330      -1.61625251       0.02216416       0.06415303       0.00727527
