13
Properties=species:S:1:pos:R:3:forces:R:3 Coordinates=T from=T ORCA-job=T run=T Energy:=T 30.1780009=T energy=-11958.514838584153 pbc="F F F"
C        0.07976334      -0.03658029      -0.16543139      -0.01130269       0.00196710      -0.00371620
H        1.66453438       1.33049640      -0.33618048       0.01194153       0.00173051      -0.00793490
F       -1.29495917      -0.10013147      -0.15735681      -0.02343785      -0.01115602       0.01681897
H        2.53525178       0.40272088       1.92189542      -0.00361315       0.00685746       0.00109221
C        0.59185579       1.37530224      -0.09023280       0.00043298       0.00784797      -0.01109861
H        0.48984699      -0.66553242       0.62417750       0.02833507       0.00461615      -0.00014186
H        0.07269241       1.97308854      -0.84476400      -0.00664499       0.00391343      -0.01648846
N        0.44822889      -0.70845846      -1.48554903      -0.03416627       0.03609093      -0.00492577
O        0.49080218      -0.01863697      -2.48327593       0.01123678       0.00604264       0.00675647
O        0.60895422      -1.90851279      -1.46767753       0.02791305      -0.00386298       0.02690581
N        0.34245483       1.85775475       1.25765929      -0.00991437      -0.00929236      -0.01022463
H        0.53862718       2.85390645       1.27132026       0.01699589      -0.01909287       0.00331170
H        1.10817537       1.41029370       1.80990570       0.00097831      -0.00491933       0.00612332
