15
Properties=species:S:1:pos:R:3:forces:R:3 Coordinates=T from=T ORCA-job=T run=T Energy:=T 36.6063157=T energy=-26540.96556595848 pbc="F F F"
C        0.22806622      -0.04148207      -0.03551512      -0.01251084      -0.00754517       0.00178157
H        1.61620959       1.48398265      -0.12395180       0.00684284       0.02590732      -0.01851574
Cl      -1.59614586      -0.26282768      -0.15059111      -0.02165117      -0.00860361      -0.01126780
F        2.46948261      -0.34923082       0.25164090       0.00390933       0.01051844       0.00048266
C        0.53353131       1.44973546      -0.02215979       0.00437982      -0.00794708       0.01180961
H        0.06655864       1.90107947      -0.90011311      -0.00970261      -0.01104100       0.01481085
N        0.73195565      -0.71811271      -1.31469876       0.03907218       0.02951389       0.01834030
O        0.96255929       0.00420102      -2.25843707      -0.00082602       0.01150255      -0.00462761
O        0.75229437      -1.92069823      -1.33093800      -0.02681800      -0.01854759       0.01549942
C        0.70625168      -0.76609104       1.14977398       0.01632749       0.00848875      -0.04175820
N        0.64158563      -1.26642757       2.19232998      -0.02764069      -0.02873839       0.03680094
C        0.08321236       2.12990145       1.26423279      -0.00122300      -0.00215477       0.01102412
H       -0.99989179       2.07405921       1.40600900      -0.01047057      -0.02204371      -0.02417091
H        0.55823432       1.66743027       2.13211093       0.02257468       0.01258524       0.00849835
H        0.36443370       3.18724218       1.24720006       0.01406817      -0.00736793      -0.01731504
