17
Properties=species:S:1:pos:R:3:forces:R:3 Coordinates=T from=T ORCA-job=T run=T Energy:=T 52.1956432=T energy=-37854.12016780066 pbc="F F F"
C       -0.01590165      -0.09240997      -0.09228865       0.02311777      -0.07104718      -0.03955313
H        1.44142275       1.39563086      -0.26974478       0.01218514      -0.00571168       0.05145133
Cl      -1.77626030      -0.32540651      -0.37533224      -0.00316268       0.02287762       0.00151209
Cl       3.39557720       0.41747324       0.68419820      -0.02313779       0.00938973      -0.00252397
C        0.36430943       1.40815079      -0.07798136      -0.02250861      -0.06474253      -0.04137968
N        0.67788520      -0.83587418      -1.26994945      -0.01654806      -0.02555814      -0.06935734
O        1.17770063      -0.16666339      -2.13126929      -0.03552226      -0.00006200       0.02492499
O        0.60834692      -2.04151825      -1.24537292       0.01025889       0.08023452       0.05280748
C        0.28396798      -0.82793298       1.13882564      -0.01387871       0.01195866       0.00027944
N        0.35116535      -1.38541820       2.13961634       0.03407048      -0.04339761       0.04304758
C        0.16258684       2.01087526       1.30755787       0.01198320       0.00782563      -0.03891585
H       -0.87996484       1.95519905       1.64793285       0.02584281      -0.05215426      -0.03167802
H        0.81836482       1.51847609       2.02895386      -0.05480363       0.02862320       0.01046955
H        0.45408512       3.06254018       1.26738325       0.00672026       0.04100538      -0.00631223
N       -0.33404733       2.09077569      -1.15335262       0.06506437       0.17422997      -0.05557538
H        0.31408127       2.64415442      -1.70011242      -0.12579886      -0.10942407       0.10511907
H       -1.07220788       2.68873871      -0.80261782       0.10504637      -0.02662702      -0.00202156
