18
Properties=species:S:1:pos:R:3:forces:R:3 Coordinates=T from=T ORCA-job=T run=T Energy:=T 172.5109593=T energy=-27612.297460697213 pbc="F F F"
C        1.16394840      -0.06802923       0.02213839       0.08720061       0.04451717       0.03098351
H        1.81085376       1.87685330      -0.35637550      -0.20766278       0.04516106      -0.00825794
Cl      -2.91957693       0.17428964       1.00470159       0.18265782       0.03663577       0.07338318
F        2.53453514      -0.12490801       0.27001197       0.08308795      -0.11967302       0.01595911
C        0.84297942       1.43501358      -0.08270481      -0.08467424       0.05626459       0.04634717
N        1.06999282      -0.73727602      -1.36843421       0.00352273       0.00664691       0.03529909
O        1.48194849      -0.08472690      -2.30160529       0.11853895      -0.02103779       0.06489200
O        0.66891634      -1.87176977      -1.43008968      -0.03313035      -0.05362730       0.07914724
C        0.45904642      -0.84221881       1.09051975      -0.01747555       0.11011894      -0.15858197
H        0.72026895      -0.36596796       2.03544583      -0.05825372      -0.09815356       0.07416206
H       -0.62991259      -0.79874726       0.97639652      -0.07260343      -0.02287224      -0.03229373
H        0.82337715      -1.86341269       1.10019069      -0.02840538      -0.20014636      -0.07106414
C        0.34377506       2.02526020       1.24288653       0.07215750       0.06893968       0.06304448
H       -0.65219798       1.64264488       1.49934851       0.03319334       0.10022765      -0.13452000
H        1.03199014       1.80357840       2.05877888       0.14516863      -0.08959022       0.01646651
H        0.31961273       3.11061721       1.14559982      -0.19878793       0.07789702      -0.00458815
C       -0.08061432       1.82826108      -1.15356583       0.18997488       0.07859200      -0.01575549
N       -0.69857474       2.29319422      -2.00156045      -0.19498076      -0.02158847      -0.07562422
