19
Properties=species:S:1:pos:R:3:forces:R:3 Coordinates=T from=T ORCA-job=T run=T Energy:=T 108.5973366=T energy=-14098.090296348853 pbc="F F F"
C       -0.03372541       0.00926681       0.03106430      -0.03024255       0.06902961       0.12274252
H        1.60058410       1.32167563      -0.27900613      -0.11622369      -0.07969980      -0.00130685
F       -1.43558101       0.04964969      -0.05418867      -0.00410707       0.01003155      -0.04928148
H        3.19130764       0.24270428       0.74694131       0.02164535      -0.01227681       0.04956877
C        0.52527339       1.43251063      -0.05702271      -0.06124494       0.04605778       0.04341077
N        0.32900208      -0.80336610      -1.24235409       0.00512396      -0.10013160       0.17638254
O        0.84321518      -0.23451487      -2.17602798       0.03082078       0.02050958      -0.15392860
O        0.03283719      -1.97807660      -1.23332787      -0.02848622       0.03739726      -0.07937667
C        0.36444914      -0.79530021       1.22692576       0.05147194      -0.05247611       0.01972889
H        1.46633436      -0.80189827       1.26482418       0.10009019       0.08245995       0.04308975
H       -0.02296152      -0.30446199       2.12335186       0.01876317      -0.07593007      -0.04959913
H       -0.04293780      -1.80226070       1.14350303      -0.02976006      -0.01511358       0.03568309
C        0.45711112       2.12594819       1.30063640       0.01403513       0.00034077      -0.01169817
H       -0.53776269       2.06236554       1.76443630       0.04706965       0.01778500      -0.04478118
H        1.20934252       1.69321901       1.96616402      -0.02482401      -0.01110974      -0.00500424
H        0.70362307       3.18094277       1.15381659      -0.05005442      -0.04018043      -0.03175682
N       -0.14526580       2.23417877      -1.08156787       0.03027247      -0.01167887      -0.01901148
H       -1.14790035       2.10128859      -0.99383815       0.03403679       0.05413444       0.01831147
H        0.11418904       1.85467330      -1.98302822       0.00830982       0.05603086      -0.03674385
