16
Properties=species:S:1:pos:R:3:forces:R:3 Coordinates=T from=T ORCA-job=T run=T Energy:=T 54.3484958=T energy=-83062.25662108083 pbc="F F F"
C        0.07676854      -0.12747529      -0.09263305      -0.07724406       0.04977680       0.12522832
H        1.63609851       1.28828616      -0.31430459       0.05793840       0.03128683      -0.05799430
F       -1.30214290      -0.14546704      -0.03411894      -0.16429123      -0.01004310      -0.00624137
Br       3.69648490       1.17685444       1.74979189      -0.06574371      -0.00860051      -0.00848389
C        0.55749707       1.29877884      -0.16411485      -0.00634485      -0.00770709       0.02686552
H        0.41836126       1.71886241       0.84200635      -0.00047488      -0.00019843      -0.01392566
N        0.41342741      -0.90432045      -1.37902243       0.08417924      -0.24312093       0.12299067
O        1.40330002      -0.57581357      -1.98166088       0.06265493       0.04013269      -0.09295335
O       -0.28754068      -1.85997592      -1.64760023      -0.01560008       0.31182287       0.03820013
C        0.65105977      -0.89023079       1.07324631      -0.00790101      -0.02706921      -0.03780356
H        0.37788536      -1.94362965       0.98849821       0.10399693      -0.05541474       0.02490621
H        1.73326500      -0.72764433       1.10935645       0.01620645      -0.14503914       0.09421313
H        0.22940501      -0.49232984       2.00129478       0.04808311       0.03329424      -0.12980107
N       -0.12051042       2.03173254      -1.22414826      -0.14137056      -0.09833716       0.07351869
H        0.38029973       2.89771296      -1.37027626      -0.14154441       0.05297830      -0.06888753
H       -1.06866135       2.25064619      -0.92799715       0.24690904       0.06330941      -0.10431783
