15
Properties=species:S:1:pos:R:3:forces:R:3 Coordinates=T from=T ORCA-job=T run=T Energy:=T 32.6073625=T energy=-87557.60435957063 pbc="F F F"
C        1.20163822      -0.13741683       0.06879213      -0.01862005       0.00350658      -0.07168453
H        2.09805072       1.75124606       0.39619178       0.05441196      -0.04415731       0.00526097
Br      -2.36246307      -0.17750730       0.43824174      -0.03347579       0.08405501      -0.02545538
F        2.54775835      -0.42084444      -0.17633840       0.00902067       0.03829779       0.00291608
C        1.10110985       1.38390073       0.15491540      -0.02028626       0.03869859      -0.03451784
H        0.78781702       1.79401950      -0.79637805      -0.04496223      -0.03070534      -0.07852422
N        0.62952253      -0.61964608      -1.34872081       0.05145196      -0.00011111       0.00838564
O        0.55371443       0.17969527      -2.25162506      -0.00148066       0.00679880      -0.00459406
O        0.42622036      -1.80450875      -1.43810707       0.01232792       0.02373023       0.02933056
N        0.73741576      -0.90654097       1.10517526      -0.04224344      -0.08919002      -0.01175978
H       -0.21361912      -0.60773907       1.35096390       0.01145652      -0.07024211       0.04962857
H        0.66614179      -1.86831629       0.77823169       0.03890519       0.11635549       0.07846386
N        0.22886472       2.03640951       1.18771187      -0.03769104      -0.03766371      -0.04117045
O       -0.32178459       3.04891420       0.81929655       0.00542772      -0.01854399       0.08322460
O        0.24279051       1.60921776       2.31621599       0.01379500      -0.01927802       0.00025086
