18
Properties=species:S:1:pos:R:3:forces:R:3 Coordinates=T from=T ORCA-job=T run=T Energy:=T 170.8694038=T energy=-31103.161013559577 pbc="F F F"
C        0.02795758      -0.14307763      -0.09294216       0.01080388      -0.04142306      -0.02863261
H        1.50945860       1.31488892      -0.57011283       0.05052481      -0.04300686       0.01966249
Cl      -1.81125980      -0.27368343      -0.42180176      -0.03501409       0.05056871       0.03682422
F        2.60312323       0.15548356       1.61242074      -0.01107717      -0.06607164      -0.01413503
C        0.49654113       1.33457287      -0.17616140       0.04570924      -0.06442689       0.05670690
N        0.58559109      -0.97985217      -1.34267343      -0.00945272      -0.01772187      -0.05506539
O        1.26277654      -0.41973710      -2.17042152      -0.00864820      -0.13728772       0.08987002
O        0.34713509      -2.16969316      -1.32038888       0.05109533       0.20214990      -0.00727661
N        0.39453626      -0.73536892       1.06582847       0.04306809       0.03784679      -0.01176207
H        1.45637342      -0.40130676       1.40569908       0.02452924       0.02487860      -0.03849260
H        0.23221110      -1.73484348       1.02568391       0.02193257       0.08519438      -0.00470894
C        0.46382124       2.02922443       1.17320452      -0.03756980      -0.00188598       0.01243893
H       -0.49430219       1.89062614       1.67224121      -0.05113379       0.00075636      -0.00899877
H        1.27409648       1.58695058       1.75785245      -0.04414359       0.00643947      -0.02822433
H        0.64006447       3.10047895       1.04623753       0.02280636      -0.02459324      -0.03297246
N       -0.29653528       2.14113704      -1.19752015      -0.09967040      -0.00832566       0.03628727
O       -1.21480543       2.82157094      -0.78674628       0.12362523      -0.07105271      -0.08731013
O        0.05216264       2.08942719      -2.35670288      -0.08447242       0.05505740       0.09194881
