14
Properties=species:S:1:pos:R:3:forces:R:3 Coordinates=T from=T ORCA-job=T run=T Energy:=T 582.8404458=T energy=-84503.09024479904 pbc="F F F"
C        1.21546775       0.00591614      -0.06815990       0.23766098      -0.11880523       0.02556341
H        1.03896912       1.95774972       0.68438565      -0.23935194      -0.18366433      -0.21166718
Br      -2.36223442      -0.17980983       1.54314853       0.12580356       0.05613467      -0.03214730
F        2.58328062       0.19235102      -0.25032928       0.10619746      -0.01165081      -0.01491373
C        0.54179936       1.37086555      -0.10561756      -0.09782229      -0.14723581      -0.01956707
H       -0.51611044       1.24832443       0.17167513       0.01327777       0.02216158      -0.01456053
N        0.92635253      -0.87779653      -1.33736727      -0.22597780      -0.04443441      -0.11280598
O        0.80827179      -0.32940719      -2.40350318      -0.01949020      -0.07635109      -0.05762167
O        0.89901538      -2.07416405      -1.15176832       0.05223226      -0.00475701      -0.17624032
N        0.95856891      -0.71723538       1.07529290      -0.06911883       0.00962737       0.18856674
H        1.09569901      -1.70927765       0.89979150       0.10536155       0.22125869       0.09830863
H       -0.00255929      -0.58469699       1.40611893      -0.13083130       0.08573280       0.05629516
C        0.66386326       2.10905303      -1.36644998       0.17671305       0.12214223       0.27650131
N        0.77119091       2.78884260      -2.28641055      -0.05416160       0.05317649      -0.00476585
