13
Properties=species:S:1:pos:R:3:forces:R:3 Coordinates=T from=T ORCA-job=T run=T Energy:=T 105.1415797=T energy=-91253.4997738118 pbc="F F F"
C        0.14907986      -0.07833402      -0.21172344      -0.00466498      -0.02123526       0.00299523
H        1.59161445       1.42771450      -0.46256548      -0.00320107       0.00614224      -0.01501861
Cl      -1.57785144      -0.36394239       0.16281512      -0.00343022      -0.01510677      -0.00026100
Br       3.09736510       0.13509667       1.70281061      -0.00273711      -0.01196533       0.00809305
C        0.52622903       1.41275542      -0.18397136      -0.00171909      -0.00809078       0.00211069
H        0.75079089      -0.55298839       0.57006947       0.01126711      -0.00616552      -0.00300922
C        0.46739893      -0.69354883      -1.50005792       0.01212624       0.00250634      -0.01125939
N        0.72041801      -1.16141500      -2.51869002      -0.00559725      -0.00619996       0.00590944
N        0.28750760       1.94155561       1.14676792       0.00269916       0.01092697       0.00043872
H        0.44922409       2.94145314       1.13462088       0.01020507       0.01027873       0.00843729
H        1.02159846       1.53614319       1.73410275      -0.00989637       0.01305216      -0.00663394
C       -0.22569015       2.18006739      -1.19064164       0.00445742       0.00173102       0.02830058
N       -0.78878347       2.80545720      -1.97340521      -0.00749358       0.02199668      -0.01198147
