14
Properties=species:S:1:pos:R:3:forces:R:3 Coordinates=T from=T ORCA-job=T run=T Energy:=T 86.7107988=T energy=-90249.34063252805 pbc="F F F"
C        0.87043257       0.01324690      -0.11108682      -0.01486927      -0.00122919      -0.03530887
H        1.72639018       1.92939483      -0.58733429      -0.03751285       0.01095941       0.04037704
Cl      -2.57962896      -0.19294076       0.18580916       0.00828290       0.01384622      -0.00579636
Br       2.23039090      -0.62366573       1.15256522       0.01022176       0.00077438      -0.00237002
C        0.79198399       1.55124020      -0.13471489      -0.00188510      -0.02796560      -0.01417569
H       -0.09682566      -0.38177879       0.22752998       0.00269363      -0.01118139       0.00269532
C        1.22285372      -0.51169296      -1.42632775       0.00186277       0.01705064       0.01938854
N        1.55573521      -0.91339064      -2.45061665       0.00179907      -0.03951195      -0.03457832
N        0.59551836       2.03917172       1.22915537       0.00376900      -0.00806008      -0.05290836
H        0.23101490       2.98117993       1.18525092      -0.00922698       0.00392122       0.04194107
H        1.46811799       2.04894302       1.74264911      -0.00114834       0.05103159       0.00987559
N       -0.29043419       1.86263902      -1.02505277       0.02249483      -0.01143104      -0.02516683
H       -0.38037102       2.85857364      -1.16973042      -0.01981735       0.01790400       0.01670768
H       -1.17210769       1.46488996      -0.68668013       0.03921107       0.00650975       0.02182459
