14
Properties=species:S:1:pos:R:3:forces:R:3 Coordinates=T from=T ORCA-job=T run=T Energy:=T 85.9606908=T energy=-32726.202230658004 pbc="F F F"
C        0.85496981       0.01515994      -0.07956829       0.00010265      -0.02266524      -0.01693577
H        1.73905514       1.91241636      -0.57339721      -0.02130479       0.00359576       0.00156786
Cl      -2.59840920      -0.18712114       0.10906326       0.00914623       0.01196748       0.00571825
Cl       2.09467624      -0.55147173       1.10824210       0.00659853      -0.00910713      -0.00839175
C        0.79419755       1.55111866      -0.12982806       0.01700953      -0.02343907       0.00754663
H       -0.12136717      -0.36362231       0.25129302      -0.00170983      -0.00259784       0.00167880
C        1.21146196      -0.54104580      -1.38395716       0.01081176      -0.01615661      -0.03596355
N        1.54662509      -0.98064728      -2.39188983      -0.01210330       0.00642856       0.01632619
N        0.59853702       2.05368146       1.22980029       0.01414878       0.02368672      -0.01291444
H        0.32597326       3.02678950       1.17720536      -0.02210635      -0.00695260       0.02312499
H        1.45952817       1.99390762       1.76199102      -0.03493174       0.03631028      -0.00949456
N       -0.27532910       1.86722235      -1.03280199       0.01767427       0.01264632       0.00387846
H       -0.36575423       2.86519539      -1.16605212      -0.00767020       0.00403380       0.00656102
H       -1.16102315       1.47193928      -0.70155495       0.02807851       0.00041483       0.00571055
