13
Properties=species:S:1:pos:R:3:forces:R:3 Coordinates=T from=T ORCA-job=T run=T Energy:=T 124.6639700=T energy=-37788.39399689506 pbc="F F F"
C        0.09893135      -0.09119957      -0.04797492       0.01285702      -0.00241770       0.00313679
H        1.64402527       1.35768568      -0.07376946      -0.01047789      -0.00673291       0.01249254
Cl      -1.69010752      -0.23352543       0.03727527      -0.01456559      -0.00647384       0.00362128
Cl       3.53986621       0.32948278       0.19077178      -0.00649766      -0.02321458       0.01570074
C        0.53354738       1.36707386      -0.07364670      -0.00844702       0.00148986      -0.01172634
H        0.18685091       1.83960201       0.84568198       0.01670039       0.00205383       0.00152564
C        0.55208413      -0.87447497      -1.19646351       0.01642080      -0.01762560       0.01373033
N        0.80357019      -1.46879784      -2.14476877       0.00439516       0.00367875      -0.02338614
N        0.59245322      -0.75764563       1.26006566       0.00869488       0.01618033       0.00741638
O        0.57874547      -0.05642612       2.23790287       0.00655921      -0.00258458       0.00843953
O        0.84577964      -1.92857340       1.20273670       0.00097620       0.00886771      -0.00379657
C        0.01317729       2.07608282      -1.23301258      -0.01833118      -0.00465579      -0.02417522
N       -0.39407302       2.64932036      -2.14242587      -0.00661322       0.02182857       0.00264684
