13
Properties=species:S:1:pos:R:3:forces:R:3 Coordinates=T from=T ORCA-job=T run=T Energy:=T 207.9719336=T energy=-18175.267482091484 pbc="F F F"
C        0.99601033       0.02003148       0.01026077       0.01860277       0.01264387      -0.02832730
H        0.70306072       1.33848798       1.64858969      -0.02839873      -0.01488932      -0.00362120
F       -0.89824529      -0.28431527       1.04994161      -0.00717493       0.02363182       0.00235237
F        2.25511812       0.03563172      -0.63423605       0.02388618      -0.00309029      -0.00369755
C        0.77081342       1.42271086       0.56753401      -0.00838755      -0.00148290      -0.00382328
H        1.64235191       2.03211832       0.30627007       0.00545214      -0.02477023       0.01031162
C        0.03274653      -0.48004822      -0.97225910      -0.02153617      -0.01404023      -0.01048814
N       -0.52333513      -0.80906593      -1.92474126       0.01111239      -0.00857297      -0.00763832
N        1.24329677      -1.01166804       1.10359636      -0.03723801       0.00018701       0.02308341
O        1.69854733      -0.59950596       2.14946270       0.02467507      -0.02040279       0.01708373
O        1.14236737      -2.17068695       0.79012446       0.02823547       0.01602631       0.01262640
C       -0.42531610       2.09831124       0.07379033      -0.02009728       0.02288647       0.02484993
N       -1.28337248       2.75923492      -0.31105018       0.01311854       0.01220987      -0.01080556
