14
Properties=species:S:1:pos:R:3:forces:R:3 Coordinates=T from=T ORCA-job=T run=T Energy:=T 191.6336368=T energy=-17171.45475700321 pbc="F F F"
C        1.09180994       0.05298895      -0.02192187      -0.01987682      -0.01358129       0.00634950
H        1.69644624       2.07179689       0.08814019       0.02098905       0.00822206      -0.01385118
F       -1.21546705      -0.07315469      -0.12471592       0.00817211       0.00927905       0.02380700
F        2.48717958      -0.08816333       0.10973808      -0.02056339       0.02015622       0.00828901
C        0.74273174       1.54003534       0.00255335       0.01806432      -0.00301132      -0.00910085
H        0.15970426       1.70183163       0.91136194       0.02761268       0.00653316      -0.02240145
C        0.72135917      -0.69474755      -1.23279903       0.00524669      -0.00064220      -0.00399881
N        0.69212167      -1.28625223      -2.21869767       0.01894613       0.00397339       0.00031385
N        0.61397274      -0.70424974       1.21903776       0.01274111      -0.02310556       0.00134723
O        0.51679305      -0.07130155       2.24815242      -0.00654645       0.00476505      -0.02163511
O        0.55061805      -1.90471173       1.13284785      -0.00897570      -0.02602531       0.02451320
N        0.05584412       1.92508888      -1.22167068      -0.00813645       0.00076484       0.00860865
H       -0.19442010       2.90460197      -1.14976192      -0.02796758      -0.00471120       0.01717228
H       -0.80262798       1.36443189      -1.16071487      -0.01183889       0.01455258      -0.01292362
