15
Properties=species:S:1:pos:R:3:forces:R:3 Coordinates=T from=T ORCA-job=T run=T Energy:=T 166.3765651=T energy=-15622.447508070787 pbc="F F F"
C        0.20504014      -0.04739919      -0.16210064       0.00324892      -0.01158990       0.01005399
H        1.45368879       1.60824858      -0.68298287      -0.02534258      -0.01167073       0.03867115
F       -1.12259039      -0.26834334      -0.59632089       0.00309033      -0.01918491       0.02273525
F        2.33249090       0.08719920       0.81878446       0.00118683       0.02759684       0.00650782
C        0.48717675       1.49238908      -0.18486041      -0.01465591      -0.01742553       0.00191342
C        1.06267585      -0.76859713      -1.12450044      -0.01809859      -0.00732261      -0.00216741
N        1.58392759      -1.35001786      -1.96807506      -0.00508278       0.03315895      -0.01278546
C        0.27031758      -0.68518703       1.17172361      -0.00958532       0.00013244      -0.01571692
N        0.02256052      -1.26469260       2.13594480      -0.01818308      -0.01787723      -0.00629708
N        0.52450209       1.96491526       1.19319799       0.00603300       0.01033385      -0.03022233
H        0.76438307       2.95120404       1.17817976       0.02009375       0.00622172      -0.02386519
H        1.33956665       1.46049867       1.56496300      -0.01703470       0.00559195       0.00647388
N       -0.51787044       2.14527433      -1.00528158       0.02111517      -0.00761003      -0.00821579
H       -0.26977609       3.12476606      -1.08117579      -0.02508232       0.00880949      -0.00859271
H       -1.41238721       2.09365977      -0.53005604       0.04084249       0.01150057       0.01042383
