16
Properties=species:S:1:pos:R:3:forces:R:3 Coordinates=T from=T ORCA-job=T run=T Energy:=T 194.9640120=T energy=-34799.09102886113 pbc="F F F"
C        1.16837573       0.04128364       0.00307225       0.03011534      -0.00845408       0.00428620
H        1.72630291       2.08463076      -0.18987920      -0.03082081       0.00083708       0.00599989
Cl      -2.48246294       0.08605017      -0.08215422      -0.00621856       0.00621604       0.01315538
Cl       2.98197978      -0.08237188       0.25707303      -0.01125410       0.03269755       0.00562758
C        0.77351812       1.56834550      -0.03683942      -0.01125578      -0.00755426       0.00609008
C        0.90127056      -0.66385862      -1.25933325      -0.00233698       0.02784000       0.02024440
N        0.78845964      -1.28127767      -2.21987128       0.01322329      -0.01263999      -0.03917260
C        0.60355937      -0.71606324       1.13203538      -0.02030910       0.00350435      -0.00551326
N        0.30449526      -1.31259864       2.06601831      -0.02104737      -0.01008698       0.00754235
C        0.16330232       2.02752086       1.28797266       0.00709980      -0.01733918       0.01844627
H       -0.80497755       1.54343358       1.44056019      -0.00455048       0.00541851      -0.00902246
H        0.81269129       1.81890262       2.14473232       0.03564475       0.00823554       0.00496132
H        0.00311154       3.10969227       1.23782338       0.01890886      -0.01736217       0.00920807
N       -0.03719225       1.82149388      -1.21174471      -0.00768343      -0.02828697      -0.00375855
H       -0.20095632       2.81996371      -1.26842319       0.00978617      -0.00582874      -0.04402403
H       -0.95252678       1.37591186      -1.08227319      -0.00154622       0.01262481      -0.00168299
