13
Properties=species:S:1:pos:R:3:forces:R:3 Coordinates=T from=T ORCA-job=T run=T Energy:=T 70.6918732=T energy=-23922.02559583704 pbc="F F F"
C        0.27521131      -0.08048877      -0.01216029      -0.01889047       0.00693166       0.00971923
H        1.64259799       1.48273084      -0.16357079      -0.00494462       0.00334760       0.01183790
Cl      -1.54705228      -0.28609952       0.14080940       0.01453420      -0.00558420      -0.00129986
F        2.53661673      -0.33260665       0.38902753      -0.00227016      -0.01223466       0.03162146
C        0.56088567       1.42941641      -0.06036737       0.00060572      -0.02335395      -0.00719523
H        0.28623813       1.82183283       0.92826760       0.00378045       0.01413680      -0.00515810
C        0.65205795      -0.73443331      -1.27277999      -0.03137532       0.01144319       0.02031860
N        0.86022394      -1.24108337      -2.28253711       0.01076037      -0.02240453      -0.03450773
C        0.92708878      -0.70978043       1.17461195       0.00668731       0.00421682       0.02238111
N        0.81797772      -1.19416122       2.23187543       0.00685036       0.01331165      -0.03578399
N       -0.10128362       2.08054391      -1.17555011       0.02861877      -0.00672185      -0.02329067
H        0.41794670       2.89531319      -1.46718020      -0.02701033       0.02196377       0.02649140
H       -1.04254596       2.35963269      -0.93698340       0.00232986      -0.00208542       0.00338679
