16
Properties=species:S:1:pos:R:3:forces:R:3 Coordinates=T from=T ORCA-job=T run=T Energy:=T 89.3702246=T energy=-31853.54366370604 pbc="F F F"
C       -0.03158672      -0.11511578      -0.01331369       0.00525735      -0.04172200       0.02521197
H        1.53747859       1.29219810      -0.23569954      -0.01380643      -0.00806099      -0.00366016
Cl      -1.86565166      -0.15517674       0.13845369      -0.01166665       0.03438958      -0.01537154
Cl       3.62432211       0.80417595       1.28393480       0.01161057       0.00194620       0.01465697
C        0.45586468       1.33797933      -0.05678526      -0.00674549      -0.03248503      -0.02514351
H       -0.01990518       1.82527645      -0.91383993      -0.02130308       0.02357495       0.00628701
C        0.24867014      -0.76219364      -1.30526441      -0.00352130       0.04986086      -0.01184696
N        0.46873641      -1.25559459      -2.32011427       0.00215318      -0.01782639       0.01066624
C        0.55678893      -0.93255065       1.12667059       0.01882221      -0.00102391       0.03792706
H        1.64930131      -0.84951650       1.10048333      -0.01226493       0.00538228      -0.00470207
H        0.21947225      -0.52206417       2.07932857      -0.00081831       0.01226352       0.00621519
H        0.23725145      -1.97554462       1.06018485       0.02817479       0.02108405      -0.00992960
C        0.23366682       2.12456834       1.22780170       0.00120481      -0.00979260      -0.00780268
H       -0.79156094       2.04150564       1.60203650      -0.02501585      -0.00810023      -0.01438814
H        0.93967651       1.80223685       1.99574258       0.01643031      -0.02561408      -0.01369816
H        0.43539067       3.18113918       1.03708249       0.02105361       0.02235114       0.01045029
