16
Properties=species:S:1:pos:R:3:forces:R:3 Coordinates=T from=T ORCA-job=T run=T Energy:=T 195.2313715=T energy=-24993.831205096467 pbc="F F F"
C        0.03482620      -0.13024345      -0.00495501      -0.06809350      -0.01778379      -0.00883903
H        1.54615418       1.35666643       0.01620103       0.25584492       0.00693169       0.00359951
F       -1.37396627      -0.15539660      -0.01194249      -0.12564303      -0.11905814      -0.05749397
Cl       3.70527085       0.97988122       0.70762299      -0.07150453      -0.00831252      -0.00543689
C        0.44878619       1.33870944      -0.01465294       0.12167110      -0.00579575      -0.09412303
C        0.43821517      -0.78815131      -1.26470164       0.01124564      -0.03335656      -0.27602738
N        0.67190038      -1.35713510      -2.23645048       0.02116528       0.06458829       0.22547294
C        0.53886538      -0.86884856       1.21184198       0.07703141      -0.06179621       0.04825949
H        0.55343772      -1.94411766       1.04621107      -0.01133780      -0.09660376      -0.00966201
H        1.54556227      -0.51622481       1.45354336       0.09349704      -0.10087899      -0.00121257
H       -0.13784873      -0.64919840       2.03335028      -0.02841389       0.07720850       0.18848980
C       -0.02793045       1.96540153       1.23245247      -0.25215442       0.04595755       0.15820591
N       -0.47374525       2.44601285       2.17832490       0.07656311       0.06233292      -0.06343288
N       -0.02417182       1.97349572      -1.21583776       0.08909946       0.05116488      -0.24947586
H        0.52109707       2.78742783      -1.46213588      -0.13443240      -0.02070995       0.11876801
H       -1.00989943       2.17871680      -1.18709693      -0.05274992       0.15214044       0.02611487
