16
Properties=species:S:1:pos:R:3:forces:R:3 Coordinates=T from=T ORCA-job=T run=T Energy:=T 75.2834575=T energy=-12239.858936585626 pbc="F F F"
C        1.15117756      -0.05731298       0.09199064       0.03110692       0.01752453       0.00541591
H        1.14725788       1.87354794      -0.82998146       0.02049002      -0.00604999       0.00258667
F       -1.96683035       0.48684311       0.74349343      -0.01556290      -0.00849740       0.00994436
F        2.51919769       0.06618751       0.46589698       0.00318066       0.00200461       0.00638722
C        0.55171112       1.33148008      -0.08538635      -0.00375737       0.01330009       0.00213109
H       -0.47905261       1.16650476      -0.42552853      -0.01607034      -0.01046041       0.01519039
C        1.19662422      -0.75017292      -1.21898327      -0.00878766       0.00718271      -0.01316123
N        1.24845617      -1.28831930      -2.23426228       0.00814735      -0.00129689      -0.00509340
C        0.41618650      -0.89782863       1.11434958       0.00072673       0.00371949       0.01216385
H        0.67534934      -0.51923046       2.10562881       0.02526022       0.02085193       0.03036756
H       -0.67106826      -0.70751633       0.97151056      -0.02274711       0.02552798      -0.00640638
H        0.70821160      -1.94961722       1.05465498       0.00447829      -0.02522389      -0.03832221
C        0.40943310       2.08295645       1.23519441      -0.00196478      -0.00492954      -0.01390385
H       -0.48452460       1.66132656       1.70567094       0.00854098       0.01398967      -0.00183303
H        1.29695992       2.00523533       1.87468960      -0.01801653      -0.00195588      -0.01492740
H        0.22118003       3.14564146       1.04446523       0.01644588      -0.02011157      -0.00442856
