16
Properties=species:S:1:pos:R:3:forces:R:3 Coordinates=T from=T ORCA-job=T run=T Energy:=T 196.3384169=T energy=-24992.412729278207 pbc="F F F"
C        0.16781466      -0.14537889      -0.13216231       0.02656556      -0.00018975       0.02035632
H        1.31478466       1.51388771      -0.87665272      -0.01157701       0.00192711       0.02151198
Cl      -1.47954146      -0.51451326      -0.85418096      -0.01084809       0.01001467      -0.01421343
F        2.75066326       0.30778761       0.80946741       0.00822363       0.01433920       0.00539368
C        0.47409965       1.40962080      -0.17848183      -0.00892276      -0.02342097      -0.00293000
C        1.11564883      -0.86590355      -1.00162589      -0.02153961      -0.00890176       0.00558382
N        1.74022697      -1.49119808      -1.73694124      -0.01290268       0.02194557      -0.00824501
C        0.20174011      -0.73618440       1.27015897       0.00559372       0.00333468      -0.00716885
H        1.23697926      -0.60844306       1.60154704      -0.01387166      -0.01971771       0.00582358
H       -0.48572609      -0.19300682       1.91840839       0.01057133      -0.00684279      -0.01843279
H       -0.07292015      -1.79287400       1.22079831       0.01062168       0.01812607       0.02455245
N        0.80594780       1.90989889       1.14752612       0.00043946      -0.00693422      -0.02605135
H        0.97662047       2.90664951       1.06385887      -0.00599695      -0.00047133       0.00294142
H        1.73076025       1.43216571       1.29523715      -0.01131881      -0.00273139       0.01007218
C       -0.63537492       2.21714476      -0.72168089       0.01800118       0.00422241       0.00532213
N       -1.42976964       2.94704379      -1.12160266       0.01951841      -0.01690385      -0.01782434
