16
Properties=species:S:1:pos:R:3:forces:R:3 Coordinates=T from=T ORCA-job=T run=T Energy:=T 104.3207729=T energy=-9538.919017539292 pbc="F F F"
C        0.99063594      -0.10970337      -0.12489902       0.00053694      -0.01370707       0.01595712
H        1.46339880       1.86018751       0.55675122      -0.00259161       0.00865321       0.00821856
F       -1.68203841       0.26740262       0.88966020       0.00678308      -0.01501570       0.00955315
H        2.00731490      -0.22609403      -0.53524971      -0.00554989       0.01075389       0.01164555
C        0.64869172       1.38498022      -0.00908920       0.00491545      -0.00944344       0.00632384
H       -0.29432450       1.39464044       0.56458627      -0.00064611      -0.02332584      -0.00740069
C        0.12361952      -0.79877838      -1.09578667      -0.01246503      -0.00320536      -0.04489113
N       -0.41199999      -1.38262446      -1.93186033      -0.00953075       0.01931848       0.02166433
C        0.86804797      -0.78963988       1.24282252       0.00587341      -0.00569664       0.02525027
H        1.55293997      -0.31279925       1.95530043      -0.00828837       0.01214339      -0.00431954
H       -0.18518433      -0.62070385       1.53009081       0.02326802       0.01127293       0.00020272
H        1.11078865      -1.85742386       1.19264617      -0.00541674       0.00758132      -0.01111195
C        0.45079356       2.07802705      -1.34944778       0.00781834      -0.00092232      -0.00345311
H        1.27695855       1.90211217      -2.05228795       0.01154303      -0.00821180      -0.00250417
H       -0.47035167       1.71410672      -1.81316976       0.01375214      -0.00194546      -0.01603832
H        0.35010567       3.16120519      -1.22014450      -0.00442002       0.00570740       0.00038398
