16
Properties=species:S:1:pos:R:3:forces:R:3 Coordinates=T from=T ORCA-job=T run=T Energy:=T 56.0553182=T energy=-79569.01938644121 pbc="F F F"
C        1.19766704      -0.00679649       0.12391058      -0.00349433       0.00382537      -0.00695461
H        1.02324522       1.92305610      -0.81857859       0.01936986      -0.00314246      -0.00475225
F       -1.97723344       0.23617516       0.49802350       0.00463393      -0.03253451       0.01091905
Br       3.10723725       0.31022833       0.71247702      -0.00037283       0.00473609      -0.00069176
C        0.47924166       1.32450982      -0.08093790      -0.00255715       0.01822535      -0.00499212
H       -0.52078334       1.02060540      -0.43933795      -0.01007759       0.00664889       0.00132378
C        1.34351189      -0.68478872      -1.17029909      -0.00793477      -0.02651627       0.02094815
N        1.43404175      -1.21872215      -2.18556301       0.01725538       0.00546013      -0.00391950
C        0.49314305      -0.90350508       1.12857526       0.01058714       0.01202917      -0.02123016
H        0.88658284      -1.92357929       1.09762889      -0.03911218       0.02198552      -0.00309164
H        0.63370036      -0.49631610       2.13343588      -0.01336498      -0.02472613      -0.03644814
H       -0.59373325      -0.81225814       0.88375417       0.02243979      -0.00653710       0.03519778
C        0.18903917       2.07506131       1.21126045      -0.00176164       0.02410197       0.01598698
H       -0.67774598       1.58194436       1.65761318      -0.01377705      -0.01501656      -0.03260685
H        1.04039011       2.10866775       1.90060726       0.01957577       0.01091272       0.00641777
H       -0.09829569       3.10476102       0.97910062       0.00259222       0.03393380       0.00857159
