14
Properties=species:S:1:pos:R:3:forces:R:3 Coordinates=T from=T ORCA-job=T run=T Energy:=T 36.8447591=T energy=-13680.420780918146 pbc="F F F"
C        1.03824472      -0.10541447      -0.16328272       0.01322770      -0.00125271      -0.00766007
H        1.11100237       1.83442901       0.71784944       0.01665648       0.00305121       0.00438609
F       -1.59978010       0.49834272       1.12363053      -0.01457790       0.00419053      -0.01054421
F        2.38769137      -0.14090486      -0.57930807       0.02008962      -0.00563552       0.00771649
C        0.54465055       1.32620644      -0.06771960      -0.01051400       0.00162439       0.00378995
H       -0.54196188       1.19468018       0.34055614      -0.03512514      -0.00602341       0.02934542
C        0.29510352      -0.84957958      -1.20703440       0.00237072      -0.03556315       0.00570914
N       -0.23072489      -1.46203270      -2.02436462      -0.01274317      -0.00159468      -0.00391039
C        0.90020825      -0.80368348       1.17505417      -0.00766633       0.00525287      -0.01339879
H        1.56796828      -0.31350553       1.89101729      -0.02212237      -0.00529353      -0.01153629
H       -0.14940352      -0.64820696       1.47213194       0.01506780       0.00678406       0.02790328
H        1.17317368      -1.85899998       1.09599369      -0.01462341       0.00868639      -0.01227488
C        0.65521618       2.07506862      -1.30357145       0.00060938      -0.02695386      -0.01887607
N        0.72503443       2.68437547      -2.27935346      -0.00282655       0.03604651      -0.00094552
