16
Properties=species:S:1:pos:R:3:forces:R:3 Coordinates=T from=T ORCA-job=T run=T Energy:=T 135.2468606=T energy=-18678.632428873916 pbc="F F F"
C        1.17483355       0.12468107      -0.13806781      -0.01663841      -0.01951443      -0.04241774
H        1.52556903       2.08560722       0.48793194       0.02631964       0.09957928      -0.03363285
F       -1.11514385      -0.64242169       1.60895381       0.02711595      -0.04024903       0.01243514
F        2.40545933       0.25901201      -0.81581457      -0.05580877      -0.06104213       0.07820132
C        0.66527303       1.56984600       0.06414787       0.07299685      -0.05970391       0.01935538
C        0.36907768      -0.71167271      -1.08275272      -0.05208846       0.06712663      -0.07507338
N       -0.11794535      -1.41262151      -1.85296673      -0.00691699      -0.00670193       0.15019016
N        1.38691162      -0.47263491       1.12885851      -0.02584856       0.00707209      -0.10971620
H        1.76834733      -1.39831976       0.95947846       0.00376814      -0.00223953       0.05985393
H        0.40658388      -0.61595714       1.53283140       0.08760118       0.00839311      -0.04585482
N       -0.52856942       1.73247826       0.78632660       0.03183614      -0.02723344      -0.11221969
H       -0.36858449       2.28041505       1.61665167       0.04025592       0.07546465      -0.02286005
H       -0.94254426       0.81566600       1.08334955      -0.12531669      -0.08945553      -0.05948645
N        0.55941407       2.21052171      -1.35341019      -0.02856015      -0.03739015       0.10506861
O        1.44312212       2.98198454      -1.67552470      -0.06314713       0.02738746       0.02141554
O       -0.39060360       1.91604308      -2.03818652       0.06963563       0.05648092       0.03603368
