14
Properties=species:S:1:pos:R:3:forces:R:3 Coordinates=T from=T ORCA-job=T run=T Energy:=T 100.5226718=T energy=-26978.187683578104 pbc="F F F"
C        0.09879266      -0.15253078      -0.05603665       0.06431510      -0.00069268      -0.01010335
H        1.76802369       1.16625093      -0.18197313      -0.01554494       0.00114219      -0.02605644
Cl      -1.79525907       0.02181768       0.18933207       0.02597369       0.00240936       0.00783047
F        2.92373125       0.38797483       0.94691399      -0.04407439      -0.02580647      -0.01884946
C        0.66191593       1.25850786      -0.14928966      -0.01204865       0.02816759       0.01156544
H        0.43168373       1.78519830       0.77148935      -0.00910897      -0.00628573       0.03038306
C        0.18520634      -0.95364411      -1.29778435      -0.01474514      -0.04665296      -0.03418746
N        0.31428618      -1.69466830      -2.16870482      -0.01231933       0.04904451       0.04954375
N        0.70297778      -0.76589266       1.03339475       0.04198603       0.01564653       0.00461755
H        1.72359889      -0.37523823       1.14436007      -0.04565684       0.02805462       0.00414378
H        0.65278781      -1.77258277       0.98436837      -0.00130052      -0.01856107      -0.02815947
N        0.13794907       2.09798781      -1.25308112      -0.05402644       0.02467032       0.03175639
O        0.07612069       3.29242755      -1.03642717       0.03834671      -0.03494178      -0.02449093
O       -0.16129161       1.57623041      -2.30526956       0.04767477      -0.00538673      -0.00728027
