15
Properties=species:S:1:pos:R:3:forces:R:3 Coordinates=T from=T ORCA-job=T run=T Energy:=T 120.1221679=T energy=-15623.39368927061 pbc="F F F"
C        1.18580622       0.09928868      -0.18172116      -0.00929056       0.00792253       0.00615927
H        1.57382846       2.01384902       0.50411891      -0.00392992       0.02303530       0.01188126
F       -1.01355881      -0.63133884       1.67913698       0.00145212       0.00322266      -0.01168206
F        2.37695820       0.13577701      -0.92830342      -0.02525254      -0.02489338      -0.00414186
C        0.72792964       1.56714259      -0.03108924       0.00323864       0.01306218       0.00952772
C        0.24230748      -0.70082909      -1.02781942       0.04677822      -0.00653778      -0.01000368
N       -0.41378043      -1.35564417      -1.70722227       0.01649090       0.01416335       0.00653343
N        1.45093358      -0.45836166       1.09160782       0.00546836      -0.00890223      -0.02492930
H        1.82922322      -1.38826663       0.94143289      -0.01632778      -0.01728869       0.00848724
H        0.48890003      -0.59248817       1.54187500       0.01547896       0.03458768      -0.02282910
N       -0.52861662       1.74406811       0.66534549       0.00193835       0.00183958       0.01321522
H       -0.36212523       2.27406564       1.50962466       0.01857041      -0.00145920      -0.02413607
H       -0.89959876       0.82100948       0.99172702      -0.00748611      -0.01501359       0.01591320
C        0.70024672       2.23515786      -1.36015291       0.00171679      -0.02974359       0.02052023
N        0.69069147       2.80766446      -2.35777967      -0.01478565      -0.00830330      -0.00301030
