15
Properties=species:S:1:pos:R:3:forces:R:3 Coordinates=T from=T ORCA-job=T run=T Energy:=T 113.0582335=T energy=-77302.7046322776 pbc="F F F"
C        0.09957976      -0.08551945      -0.19688322      -0.07389972      -0.03169131       0.03244358
H        1.65323945       1.29217272      -0.25117061       0.04006592       0.00165401      -0.01243287
Br      -1.85867026      -0.24143562      -0.07654427      -0.02706198      -0.02703240       0.02827762
H        2.67549104       0.61925345       1.52748977      -0.01913251       0.01464904      -0.02388192
C        0.55572719       1.36785401      -0.10813827       0.00958524      -0.00804851       0.04160793
H        0.48172085      -0.56920227       0.70304326       0.02024942       0.03593186      -0.02216897
C        0.59431887      -0.78413629      -1.44536156      -0.01557307      -0.00120723       0.02656727
H        0.19970943      -1.80023146      -1.50907711       0.04415638      -0.00319094      -0.01007171
H        0.29509138      -0.23875712      -2.34607367       0.02174402      -0.03919301      -0.00910484
H        1.68735614      -0.83051274      -1.39248471      -0.01846557      -0.00082041      -0.05131481
N        0.29369381       1.90796636       1.21512735      -0.00363314       0.01637622       0.04637934
H        0.45743608       2.90974291       1.18649572       0.00499265       0.02017325       0.00823549
H        1.10227138       1.51809545       1.74709904      -0.01488326      -0.00659600      -0.02053935
C       -0.01200088       2.19227493      -1.17942813       0.01651402      -0.01717242       0.03036465
N       -0.42981073       2.84071617      -2.03403484       0.00455218       0.04940299      -0.04649908
