14
Properties=species:S:1:pos:R:3:forces:R:3 Coordinates=T from=T ORCA-job=T run=T Energy:=T 13.8423355=T energy=-24031.698067917812 pbc="F F F"
C        0.13396687      -0.14045407      -0.00695229       0.01212160       0.03722026       0.00652435
H        1.65274876       1.30543753      -0.14503320      -0.00198137      -0.01349027      -0.00464602
Cl      -1.68425476      -0.45497857       0.12567508       0.00522995       0.01398485       0.00515532
F        2.94386957       0.82194913      -0.39462085       0.00296676      -0.00468655      -0.03168283
C        0.45742049       1.32072111      -0.00405954      -0.01654180       0.03121217       0.02785476
H        0.54339112      -0.59332865       0.89263126       0.00105576      -0.00856068      -0.01582313
H       -0.03552084       1.88164128      -0.79660196       0.01431978       0.00862091      -0.00898968
C        0.67446319      -0.79203226      -1.25996126       0.00700063      -0.01157942       0.00403666
H        0.18159230      -0.38566029      -2.14895734       0.00638893      -0.01079242      -0.01109218
H        1.73859742      -0.52717694      -1.27768916       0.02189912       0.00782224       0.00000873
H        0.53066683      -1.87413390      -1.24224358      -0.01122583      -0.03818398      -0.00239330
N        0.15169500       1.99424877       1.25670370      -0.04496457       0.00844158       0.01340664
O       -0.14700136       3.17717313       1.21114476       0.01536800       0.00878070      -0.01528496
O        0.26371384       1.37148022       2.29802738      -0.01081721      -0.03009839       0.03606604
