16
Properties=species:S:1:pos:R:3:forces:R:3 Coordinates=T from=T ORCA-job=T run=T Energy:=T 46.9892663=T energy=-31286.14533780925 pbc="F F F"
C        0.88811131       0.06425318      -0.02459217       0.01541852      -0.02187195       0.02648689
H        1.67692097       1.95035338      -0.65583343       0.03803377       0.01499008      -0.00675181
Cl      -2.56984523      -0.55234708      -0.27109658       0.00137817       0.00558299      -0.01935258
Cl       2.41645898      -0.31006888       0.92738538      -0.01745095       0.01521688      -0.03984825
C        0.76307640       1.58233208      -0.15615041       0.01290989      -0.00077322       0.00431651
H        0.06801504      -0.30612945       0.59101411      -0.01394221      -0.00546447       0.00121002
C        0.94096278      -0.66857741      -1.34438075       0.00500306       0.00488236       0.00687046
H       -0.00851104      -0.50928638      -1.85746721       0.00666926      -0.02613063       0.00793100
H        1.76387398      -0.30337962      -1.96755076      -0.01120245       0.01213939      -0.01420157
H        1.06695034      -1.74105766      -1.17987512      -0.00288359       0.01456840       0.00900050
N        0.61065990       2.17634793       1.17888484      -0.01490239      -0.00404829       0.01382115
H        0.60173997       3.18611274       1.08203556       0.01814677      -0.01938669       0.02275210
H        1.41339665       1.94080156       1.75343202      -0.00641433       0.03175767      -0.01757120
N       -0.36005030       1.87093889      -1.02185022      -0.00899289      -0.00335120       0.02676899
H       -0.61432714       2.84725603      -0.92301280      -0.00352526      -0.01215268      -0.03494788
H       -1.17217537       1.31598925      -0.73378455      -0.01120196       0.00451892      -0.00009972
