16
Properties=species:S:1:pos:R:3:forces:R:3 Coordinates=T from=T ORCA-job=T run=T Energy:=T 55.8444345=T energy=-22834.897238307443 pbc="F F F"
C        0.36363874      -0.03458140      -0.17442129      -0.02970100      -0.00337139       0.01903732
H        1.53869918       1.66751082      -0.54138703       0.00864330       0.00550540      -0.00932287
Cl      -1.33710589      -0.50268005       0.27711827       0.03020474      -0.01726406       0.02112522
H        2.79266371       0.97603769       1.38738052      -0.00226195      -0.00307830       0.01035079
C        0.51266625       1.49223479      -0.20661399      -0.00190068      -0.00130352      -0.00663721
H        0.99951263      -0.30979873       0.67268629       0.01614452       0.00583594       0.00049904
C        0.78903351      -0.78639559      -1.41746344      -0.01181360       0.01732282      -0.00549397
H        0.20047679      -0.50772429      -2.29173276      -0.02230052       0.01827494      -0.02471571
H        1.83887573      -0.55170348      -1.61349398       0.01045100       0.01500895       0.00087631
H        0.70325832      -1.86404338      -1.25819158      -0.00910077       0.00858915       0.02624779
N        0.34064426       2.16989159       1.02586617      -0.00672069      -0.03599390      -0.02310960
H        1.22983024       1.95612049       1.52058812      -0.03125996      -0.00445846      -0.02530798
H       -0.42940856       1.76713782       1.54773448       0.00597746       0.00816511      -0.00042896
N       -0.38687561       2.07654875      -1.28690599      -0.01003124       0.04139053      -0.01551249
O       -0.01714786       1.94792524      -2.44314513       0.01412203      -0.02477616       0.00560059
O       -1.42213472       2.60484604      -0.95884994       0.01698216      -0.01353017       0.00724176
