16
Properties=species:S:1:pos:R:3:forces:R:3 Coordinates=T from=T ORCA-job=T run=T Energy:=T 47.9192841=T energy=-92868.74776916037 pbc="F F F"
C        0.07634796      -0.11491614      -0.07686789      -0.01362970       0.00298942      -0.00927067
H        1.54413288       1.38926502      -0.10300745       0.03592442       0.01235325      -0.03177836
Cl      -1.73080882      -0.28407301       0.11284286      -0.09905055      -0.00887676      -0.01795422
Br       3.81936521       0.49548734       0.13325642       0.01518085      -0.00431835      -0.04452477
C        0.44164376       1.35824103      -0.10665669       0.01790083      -0.00230653       0.04579061
H        0.50226036      -0.55471365       0.82154971      -0.04542328       0.03507318       0.03204629
C        0.53809288      -0.85492605      -1.31149669       0.03302936      -0.01378670      -0.00841289
H        0.19399993      -0.36218186      -2.22204183      -0.05179203       0.02275069       0.02420053
H        1.63156150      -0.87264466      -1.30580398       0.04307128       0.06186628       0.01091362
H        0.16646138      -1.88130018      -1.28947121       0.01385186      -0.02572096      -0.01069188
N        0.06721154       1.98468015       1.26072061      -0.01392593       0.08236067       0.04014863
O       -0.42301549       3.09864709       1.24228826       0.03994398      -0.11144707       0.02150134
O        0.31435633       1.35561196       2.26218792      -0.02214524       0.02805432      -0.06513074
N       -0.10902091       2.08533322      -1.19180388      -0.00023436      -0.00704416       0.05629995
H        0.32345969       2.99721162      -1.25893205      -0.03650162      -0.08009980       0.00718133
H       -1.10597020       2.21863782      -1.06317002       0.06469134      -0.00612565      -0.04670879
