15
Properties=species:S:1:pos:R:3:forces:R:3 Coordinates=T from=T ORCA-job=T run=T Energy:=T 152.0916347=T energy=-12676.649993319523 pbc="F F F"
C        0.84468422      -0.00503608       0.01571432      -0.00717227       0.00053366      -0.01295921
H        1.73145745       1.84652493      -0.51698490       0.01548883       0.01944926      -0.00306118
F       -1.85084326      -0.16023796      -0.68046379       0.00195884      -0.01225198       0.01264521
F        2.02553704      -0.26310631       0.75671050      -0.03769551       0.00225832       0.01205468
C        0.75445149       1.51849220      -0.12808509       0.00928286      -0.00398744      -0.01666529
H       -0.01306681      -0.37184719       0.57878998      -0.00803258       0.00689691      -0.00671201
C        0.89094288      -0.71400099      -1.31374840       0.02237755      -0.00219795       0.01573858
H       -0.15119940      -0.74655058      -1.64975831       0.04892349       0.02148449       0.01515818
H        1.53387454      -0.19869383      -2.03613061      -0.01181994      -0.01759824       0.00735514
H        1.26905053      -1.72952114      -1.15597303      -0.03118995      -0.01044748      -0.02728793
C        0.64568796       2.14188203       1.21679300      -0.00804866      -0.02545385       0.02230690
N        0.55115733       2.69038839       2.22536722       0.00203693       0.00107356      -0.01005693
N       -0.31721596       1.88772438      -1.02973614       0.00571176      -0.00052438      -0.01259669
H       -0.65759783       2.81416667      -0.80813597      -0.00964179      -0.00836855       0.00088999
H       -1.09385156       1.16977103      -0.92057324      -0.00147686       0.00576167       0.00691041
