15
Properties=species:S:1:pos:R:3:forces:R:3 Coordinates=T from=T ORCA-job=T run=T Energy:=T 17.1183708=T energy=-74355.8788251538 pbc="F F F"
C        0.35649609      -0.05983458      -0.07089018      -0.01874659      -0.01139349       0.03356788
H        1.68736282       1.49246091      -0.31546889      -0.01931304       0.00875340       0.00974158
Br      -1.51804204      -0.42733830       0.54778172       0.00401539       0.00609707      -0.03312604
H        3.28160966      -0.20462824       0.32794456       0.00960209       0.01491558      -0.02295644
C        0.59805498       1.43432242      -0.17267155      -0.00814272      -0.01650966       0.00847815
H        0.99874734      -0.44627372       0.72253804       0.02812843      -0.00008427       0.00787118
H        0.39844906       1.89299570       0.80274634      -0.00974257      -0.02423181      -0.00663009
C        0.64310940      -0.83864974      -1.33307013      -0.00157673       0.00103982       0.02030095
H        0.05107501      -0.50053546      -2.18967209       0.01543230       0.00968651       0.00676677
H        1.71735102      -0.70076682      -1.50847312      -0.00684406      -0.00789111      -0.02756888
H        0.46586232      -1.90658643      -1.18401783      -0.02182143       0.00257757       0.00424554
C       -0.17211341       2.17461392      -1.25963951       0.01213309      -0.00435607       0.01448507
H        0.05631474       1.79191630      -2.25990942       0.00029595       0.00272357       0.02624080
H       -1.25498483       2.09535179      -1.10808970       0.02691986      -0.00189268      -0.02689657
H        0.09147590       3.23787730      -1.25241914      -0.02455960      -0.00358469      -0.01242975
