14
Properties=species:S:1:pos:R:3:forces:R:3 Coordinates=T from=T ORCA-job=T run=T Energy:=T 24.4496723=T energy=-144826.32384356664 pbc="F F F"
C        0.26795629      -0.05913078      -0.08456362       0.02172715       0.02559731       0.00358349
H        1.59675186       1.53013285      -0.31908375      -0.00146070      -0.01379054      -0.00218003
Br      -1.64203215      -0.37453102       0.43880990       0.00275913      -0.02552134      -0.01124352
Br       3.83659510       0.00897256       0.44511302       0.00100547      -0.00178855       0.00524385
C        0.52077551       1.43428891      -0.13645426      -0.00329761       0.02167802      -0.00899451
H        0.84223336      -0.48129609       0.73807944       0.00155790       0.00108066       0.01225272
H        0.33089661       1.86173621       0.85921970      -0.01062796      -0.00927861       0.00871987
C        0.57270248      -0.78533908      -1.37351205       0.00089402       0.00042438       0.00891866
H        0.00996267      -0.36406251      -2.20816771       0.00734508       0.01741428       0.00458313
H        1.64608719      -0.66051724      -1.55096880       0.00219310      -0.01293548      -0.00564198
H        0.36327211      -1.85352101      -1.28701069      -0.01530208      -0.01045539       0.00122893
N       -0.22439672       2.08974124      -1.20966728      -0.01394497      -0.00398062      -0.02208192
H        0.08976825       3.04725547      -1.29786110       0.02009584       0.00262347      -0.00303366
H       -1.20845502       2.11950851      -0.96773999      -0.01191186      -0.00193400       0.01866091
