15
Properties=species:S:1:pos:R:3:forces:R:3 Coordinates=T from=T ORCA-job=T run=T Energy:=T 59.7802567=T energy=-89813.3554075448 pbc="F F F"
C        0.19525665      -0.11056840      -0.15650384      -0.01895623      -0.03368988       0.00066571
H        1.50368354       1.48499802      -0.46546433      -0.01119315       0.02683706      -0.00845705
Br      -1.69355594      -0.52508863       0.20606384       0.02637873       0.00270843       0.00854579
Cl       3.24306924       0.47510410       1.30703601      -0.00176204      -0.00005749      -0.00677265
C        0.45498744       1.39702397      -0.14027344      -0.00166589      -0.02212612       0.00317940
H        0.75026284      -0.52201695       0.68567115      -0.00639760      -0.01343101      -0.00318361
C        0.63197476      -0.76797468      -1.44949969      -0.00034656       0.00138255      -0.00762044
H        0.11373882      -0.34133007      -2.31356376      -0.01355070       0.00169679      -0.00008387
H        1.70960242      -0.61732731      -1.56711151       0.00305207      -0.00485128       0.02134524
H        0.43721159      -1.84176561      -1.42615125       0.00065586       0.01107300       0.00290774
N        0.26668500       1.94683466       1.19649523       0.00432818       0.00554084      -0.01830779
H        0.40605579       2.95039936       1.15127478       0.00042659       0.00481905       0.01853658
H        1.05979562       1.58582179       1.73173168      -0.01177657       0.00956565      -0.02192906
C       -0.37759452       2.10976335      -1.12520717       0.00436174       0.00768203       0.01756180
N       -0.99266185       2.68453877      -1.90955029       0.02109944       0.00172733       0.00972513
