15
Properties=species:S:1:pos:R:3:forces:R:3 Coordinates=T from=T ORCA-job=T run=T Energy:=T 159.5702899=T energy=-89813.42778689745 pbc="F F F"
C        0.94305515       0.01150828      -0.04695187       0.02600945      -0.03976640       0.00245658
H        1.71892290       1.93083881      -0.57822466       0.01554927       0.00720289      -0.01987887
Br      -2.66132907      -0.42333720      -0.09180688       0.01314097      -0.00605036      -0.00058343
Cl       2.51129531      -0.31801179       0.81597121      -0.01476113       0.01169216       0.00497475
C        0.78524025       1.53421295      -0.16076178      -0.00045560      -0.01994582      -0.01607073
H        0.15784679      -0.39932950       0.58786759      -0.00691992       0.00088757      -0.00209618
C        0.94041268      -0.68073851      -1.39212075       0.00992848      -0.00136746       0.00180822
H       -0.07350380      -0.65842079      -1.79568104       0.01241557       0.01896686       0.02137101
H        1.62153837      -0.18900598      -2.09321965       0.00956514      -0.01883790      -0.00086493
H        1.24312398      -1.72271783      -1.26786712      -0.02470907      -0.00279396      -0.02253428
C        0.65113686       2.15691752       1.18091912      -0.02142180       0.00874441      -0.03518195
N        0.53105744       2.72719902       2.17213851       0.01551658       0.03756706       0.09075029
N       -0.30561134       1.86057192      -1.05781554      -0.01549951       0.00094407      -0.00897968
H       -0.50152969       2.85220925      -1.01617727      -0.01291148       0.01875671      -0.00222139
H       -1.15494379       1.35774121      -0.77933247       0.01138856      -0.02153413      -0.01581877
