16
Properties=species:S:1:pos:R:3:forces:R:3 Coordinates=T from=T ORCA-job=T run=T Energy:=T 23.4888027=T energy=-19346.79068713277 pbc="F F F"
C        0.71006154      -0.04932509      -0.15918343      -0.01137480      -0.02288270      -0.00609653
H        1.68851290       1.85519285      -0.41619318       0.00219908       0.00629761       0.01322210
Cl      -2.12603226      -0.61256069       1.98909167       0.01899102       0.01341914       0.00404580
H        1.40856942      -0.33223503       0.63660490       0.01150189       0.00066774       0.00141119
C        0.67653519       1.48627592      -0.19181340       0.03536993       0.00122236       0.01324244
H       -0.26669736      -0.41457066       0.17295559      -0.04085899      -0.02600943      -0.00594894
C        1.13444658      -0.68216223      -1.47775021       0.01799008       0.01112551      -0.02607329
H        0.42635573      -0.45209698      -2.27881918      -0.03847663       0.01098617       0.00076802
H        2.12016477      -0.32804102      -1.80332763       0.03701485       0.00460137      -0.00112845
H        1.18499447      -1.77085833      -1.39052560      -0.00465855       0.00068672       0.02997537
C        0.20365576       2.06885798       1.14483693      -0.02164485      -0.00392664       0.00568907
H       -0.76305256       1.64241986       1.42612993      -0.01047208      -0.02484679       0.00498193
H        0.91378685       1.80002787       1.93254840       0.00332477      -0.00978830      -0.02987277
H        0.13163929       3.15860928       1.10105462       0.00632582       0.04422219      -0.00208283
C       -0.15477505       1.98169028      -1.30016582      -0.02022425      -0.00409842      -0.02443737
N       -0.76590596       2.38520887      -2.18846978       0.01013323      -0.00405494       0.01643761
