13
Properties=species:S:1:pos:R:3:forces:R:3 Coordinates=T from=T ORCA-job=T run=T Energy:=T 122.6121147=T energy=-88307.18803697778 pbc="F F F"
C        1.02995800      -0.01007802      -0.21100735      -0.05591755       0.00949419       0.04946113
H        0.77859259       1.94776524       0.65156690      -0.02597531       0.08930148      -0.07842648
Cl      -1.58525857       0.02833423       2.05118484      -0.01158659      -0.07389292      -0.01918465
Br       2.99320326       0.17269454      -0.01821519      -0.10891942      -0.11798187      -0.08055831
C        0.38168150       1.36535198      -0.18155292      -0.02540890       0.05174727       0.03223476
H        0.68463648      -0.51664139       0.69153291       0.10232395       0.01723855       0.03138715
H       -0.67296733       1.19632869       0.07057034      -0.03672776       0.03717673      -0.01643680
C        0.68346745      -0.80565961      -1.45217953       0.03568526      -0.03434303       0.00984466
H       -0.40886348      -0.82974709      -1.54697599       0.06657487      -0.00589872       0.00269376
H        1.11010303      -0.35526204      -2.35329559      -0.06887538       0.00872324       0.02197197
H        1.03804869      -1.83358959      -1.37678084       0.05015086      -0.05012445       0.02649907
C        0.50357968       2.09080016      -1.44392131       0.07653578       0.01126532      -0.00472327
N        0.58884813       2.61298289      -2.46608451      -0.00623174       0.06955415       0.02572062
