15
Properties=species:S:1:pos:R:3:forces:R:3 Coordinates=T from=T ORCA-job=T run=T Energy:=T 8.5692152=T energy=-29343.6747233282 pbc="F F F"
C        0.23596770      -0.11330929      -0.07769670       0.00498412       0.02446384       0.02598265
H        1.36380081       1.61100181      -0.38108063      -0.03003612      -0.00295490      -0.01520783
Cl      -1.46530518      -0.64935143       0.37899275      -0.03058673       0.01632069      -0.02788523
Cl       3.53686818       0.30817716       0.62760407       0.00588724      -0.00842095      -0.01889856
C        0.32683205       1.40104587      -0.09572012      -0.01539015       0.00998510       0.00555143
H        0.87672787      -0.50337037       0.71177763       0.00242772      -0.00064842       0.01491361
H       -0.33827594       1.80152229      -0.87342575      -0.02105460      -0.02106655       0.02041060
C        0.60458538      -0.74309940      -1.40168923      -0.00200519       0.00765755       0.01661333
H       -0.03375524      -0.36476470      -2.20770437       0.02709656      -0.00140187      -0.01446635
H        1.65048442      -0.49376644      -1.60158021       0.00905748      -0.01072559      -0.00009971
H        0.51049505      -1.83063557      -1.36320028       0.00128363      -0.00604437      -0.00119111
C        0.06292099       2.05735573       1.25232721       0.01536470      -0.00647797      -0.01484139
H       -0.94911739       1.85261380       1.61755398       0.03098848      -0.00123436       0.00026029
H        0.78802863       1.68685224       1.98276410      -0.00818212       0.01169590       0.00854585
H        0.18811939       3.14298166       1.18385869      -0.00686529      -0.01220365       0.00601619
