15
Properties=species:S:1:pos:R:3:forces:R:3 Coordinates=T from=T ORCA-job=T run=T Energy:=T 65.7940604=T energy=-89813.51352111872 pbc="F F F"
C        0.15738462      -0.10561868      -0.13276296       0.00397302      -0.01078652      -0.00642136
H        1.46779888       1.48315971      -0.52325818      -0.02892955       0.00148976       0.01180021
Cl      -1.58491356      -0.46015140       0.20546993       0.01321517       0.02416158      -0.00281333
Br       3.44517244       0.45097481       1.18326821      -0.00789586       0.00161027      -0.00094557
C        0.43212019       1.40033694      -0.15595104      -0.01017142      -0.00774131       0.01149411
H        0.71161519      -0.49885359       0.71883452       0.00589384      -0.01545378      -0.01164268
C        0.59359028      -0.80070305      -1.40425709      -0.00111345      -0.00750320      -0.00831017
H        0.09238792      -0.38540552      -2.28409524      -0.01386998       0.00944611       0.00877263
H        1.67548880      -0.67729031      -1.50875312      -0.00217967      -0.00967827       0.00567985
H        0.37115271      -1.86776021      -1.35020840       0.00826588      -0.01075327      -0.01838004
N        0.29268050       1.96355729       1.18180775       0.01187851       0.01578939      -0.00292326
H        0.43195954       2.96637445       1.12735551      -0.00153975       0.01918242      -0.00452262
H        1.10299400       1.60676090       1.69207748      -0.00231822       0.00477296       0.00964402
C       -0.43049731       2.11014709      -1.11640537       0.02114241       0.00621459       0.01880801
N       -1.05911002       2.69671132      -1.88091206      -0.00128357      -0.02084723       0.01070807
