15
Properties=species:S:1:pos:R:3:forces:R:3 Coordinates=T from=T ORCA-job=T run=T Energy:=T 90.8700847=T energy=-80005.86283166886 pbc="F F F"
C        0.87013681      -0.00082052      -0.03875920      -0.00385831      -0.00492342      -0.03112795
H        1.70866222       1.91610631      -0.52919204      -0.01498480      -0.00189353      -0.01116110
F       -1.83079430      -0.14529638      -0.47509405       0.01756979      -0.01838063       0.02084282
Br       2.54118757      -0.41805122       0.95115883      -0.00594770      -0.00638596      -0.00268981
C        0.75272784       1.53024195      -0.14439229       0.02686328      -0.03007697       0.00981293
H        0.03741126      -0.38463127       0.54837596       0.00895543       0.02564194      -0.01225446
C        0.84703410      -0.68288000      -1.39112249       0.00417943       0.00731979       0.01290694
H       -0.21663254      -0.68244818      -1.65345540       0.04282719       0.01892379      -0.02396319
H        1.44632994      -0.15418175      -2.13976029      -0.01966480      -0.00289440       0.03739614
H        1.20416583      -1.71350594      -1.31003178      -0.04078464       0.01555359       0.01129913
C        0.59948532       2.14068167       1.20516551      -0.00428480       0.00969418      -0.01571302
N        0.45996641       2.70395019       2.19996642      -0.00053066      -0.01079462      -0.00074468
N       -0.33136509       1.87137102      -1.04374024       0.01510570      -0.00425275      -0.01758373
H       -0.63465555       2.81942858      -0.86614896      -0.02593426       0.04966192       0.00911573
H       -1.11893434       1.18873417      -0.85128483      -0.00639711      -0.04334879      -0.00178156
