16
Properties=species:S:1:pos:R:3:forces:R:3 Coordinates=T from=T ORCA-job=T run=T Energy:=T 191.6698147=T energy=-92323.23695132375 pbc="F F F"
C       -0.03420541      -0.24092573       0.05306389       0.07173915      -0.01116596       0.24157868
H        1.48566877       1.25680681       0.19637954       0.00939539      -0.14756589       0.05766002
Cl      -1.83806658      -0.41593214      -0.04256272      -0.02418443       0.17756922       0.00932423
Br       3.59255538       1.70987832      -1.33484214      -0.25011210      -0.02943949       0.02193980
C        0.38479148       1.25765098       0.11385104       0.00370332       0.07855123       0.22587576
C        0.56526577      -0.96205194      -1.14951457      -0.03014951      -0.05055955      -0.22371353
H        0.16208501      -0.49224485      -2.04852878      -0.00975932      -0.01977031       0.01820232
H        1.65307531      -0.83935706      -1.18937913      -0.04066699       0.00901787       0.17935445
H        0.28832768      -2.03047007      -1.13815263       0.13870734       0.41633172       0.04303742
C        0.36002024      -0.90213874       1.30998435      -0.13854681      -0.22809286      -0.00883701
N        0.61629445      -1.46984508       2.27681592       0.10348935       0.11800018      -0.07485156
C       -0.13738214       1.94080086       1.32084003      -0.07456946       0.10224098      -0.10794507
N       -0.54796284       2.58479679       2.18421943       0.09493455      -0.27964952      -0.15360885
N        0.05104073       1.98700858      -1.09371381       0.38133379       0.21529863      -0.03971099
H        0.95852376       2.28988035      -1.48059017      -0.52903156       0.00430086      -0.00725324
H       -0.53177596       2.79729460      -0.88521710       0.29261235      -0.35016292      -0.18178752
