15
Properties=species:S:1:pos:R:3:forces:R:3 Coordinates=T from=T ORCA-job=T run=T Energy:=T 229.5283062=T energy=-32289.74604906196 pbc="F F F"
C       -0.03474743      -0.15665173      -0.02749495       0.00340632       0.07872240       0.01263294
H        1.38282652       1.37575619      -0.46948160      -0.03533698       0.00361417       0.01465335
Cl      -1.85976742      -0.25524039      -0.20319649       0.02517909      -0.07263134       0.03851850
Cl       3.71046592       1.32731448       0.16614562       0.01785387      -0.02876350       0.02730504
C        0.39572138       1.32367979       0.00485649      -0.00142608       0.03639102       0.00843088
H       -0.32371253       1.87540257      -0.60647475       0.02062994      -0.02038411      -0.03053608
C        0.60811396      -0.86151046      -1.21502057      -0.01330271       0.01240824       0.00218309
H        0.33254870      -0.33024407      -2.12957142      -0.02246916      -0.05600412      -0.01836689
H        1.69456782      -0.80106386      -1.10450492       0.01158455      -0.02240620       0.04914142
H        0.29420199      -1.90494496      -1.28506596      -0.01280491       0.02761681      -0.02260130
C        0.27462569      -0.87017539       1.22197895      -0.00741866       0.00374023      -0.02263273
N        0.50120546      -1.49101704       2.16269984       0.00882771       0.04377082      -0.06770785
N        0.43364859       1.87326040       1.35022832       0.01513149       0.00919080      -0.01691543
H        0.31042845       2.87618754       1.28569668      -0.00892015      -0.02227697       0.04132206
H        1.38826706       1.74222902       1.68166413       0.00395114      -0.00258441      -0.00438433
