15
Properties=species:S:1:pos:R:3:forces:R:3 Coordinates=T from=T ORCA-job=T run=T Energy:=T 55.3978746=T energy=-9974.1578770704 pbc="F F F"
C        0.44701824       0.01321192      -0.02319242       0.00671888      -0.02142369       0.01554518
H        1.31250742       1.91738825      -0.43077397       0.02631814      -0.01710292       0.00750798
F       -0.86240516      -0.45888430       0.35384027      -0.01776876      -0.02762947       0.00413512
H        1.43466621      -1.62532226       1.03319129      -0.00557139       0.01781086      -0.01826626
C        0.34538051       1.52978932      -0.09461757      -0.00135070      -0.00950038       0.01436064
H       -0.40005831       1.81191575      -0.85345181      -0.02209008      -0.01945048      -0.00838123
C        0.71942220      -0.62221999      -1.36849752       0.00626643       0.00267417      -0.01778255
H       -0.07296768      -0.39896884      -2.09212665      -0.03016171       0.01508711       0.00322711
H        1.67211922      -0.26038209      -1.76634439       0.03213514      -0.00761500      -0.01282585
H        0.78873810      -1.70941746      -1.25399331       0.01323820       0.00155602       0.00517275
C        1.46420111      -0.47460933       1.04918620      -0.02926691      -0.02639207      -0.00391689
N        2.17553362       0.22467416       1.78142145       0.00681528       0.04052922       0.00051687
N        0.02483264       2.16876154       1.17690900       0.00497269       0.04606715       0.00493991
H        0.80206482       1.86558509       1.77207453       0.01993368       0.00286137       0.01371299
H       -0.78599773       1.68087407       1.54648676      -0.00972354      -0.00871783      -0.00415620
