15
Properties=species:S:1:pos:R:3:forces:R:3 Coordinates=T from=T ORCA-job=T run=T Energy:=T 53.6325947=T energy=-84064.81778890827 pbc="F F F"
C        1.04399236       0.02433141       0.11257732      -0.02630785       0.07733663       0.03894315
H        0.66653194       1.93811983      -0.82138030       0.15190488       0.03025449      -0.08252346
F       -1.95357030       0.57211674      -0.72790866       0.17989139       0.13966054       0.06019105
Br       3.12902845       0.10541009       0.49759560       0.05198164      -0.08196963      -0.10509145
C        0.45753546       1.34971790       0.06164985      -0.11188116       0.06536601       0.08546753
H       -1.13509716       0.96444069      -0.32986325      -0.30530345      -0.22268551      -0.10826529
C        0.89621192      -0.71532250      -1.21534493      -0.01892417      -0.08358965       0.07109254
H       -0.17296158      -0.78360553      -1.42471299      -0.01892284       0.00382686      -0.05835420
H        1.39581698      -0.20114639      -2.04079295      -0.00549693       0.11281078       0.18506821
H        1.31152098      -1.71430173      -1.11966939       0.07677037      -0.15220397      -0.10835678
C        0.58144420      -0.86050981       1.19126818       0.06497011      -0.03374963       0.02895588
N        0.23368143      -1.67565726       1.92594446      -0.03816191       0.11464630      -0.07789462
N        0.52120469       2.15409781       1.21989034       0.00955692       0.06414776       0.04286676
O        0.47757718       3.37714118       1.08239549      -0.06699846      -0.13044542       0.01342188
O        0.58812358       1.60761593       2.31792342       0.05071159       0.09555576      -0.00338741
