16
Properties=species:S:1:pos:R:3:forces:R:3 Coordinates=T from=T ORCA-job=T run=T Energy:=T 105.0290950=T energy=-12486.03095596974 pbc="F F F"
C        1.07992737       0.11281003       0.21366499       0.00649436      -0.09387186      -0.02377567
H        1.09870256       1.83219792      -1.03239094       0.02112285       0.08391075      -0.06164418
F       -1.13945958       0.47055067      -2.44861451       0.11692947      -0.07705408       0.04537336
H        2.10192553       0.12983777       0.61798181      -0.01547572      -0.04028330      -0.09071424
C        0.61730681       1.57564927      -0.08393270      -0.00300351      -0.08235644      -0.06603833
C        0.98760874      -0.76008763      -1.04525056      -0.00371310      -0.04531912      -0.02465059
H       -0.01043337      -0.67378851      -1.50808610       0.03995364       0.10595990       0.01558040
H        1.67878964      -0.38594351      -1.80680754       0.10970157      -0.02009841       0.08576785
H        1.24539321      -1.79423697      -0.79991466       0.00784718      -0.04851054      -0.05390957
C        0.22850973      -0.47184534       1.25619879       0.01069002       0.04413312       0.03513589
N       -0.46990641      -0.94012568       2.04134082       0.02821833      -0.01910554       0.11594672
C        1.19970422       2.48144455       0.93804747       0.01151796      -0.11934534      -0.11894423
N        1.71508543       3.15220909       1.71822857      -0.04837950       0.06631420       0.08230254
N       -0.78947550       1.76926578      -0.26612716       0.01516066       0.08052103       0.10549000
H       -1.28341640       1.33061855       0.50100052      -0.13830411       0.01990648       0.09890539
H       -1.04394075       1.25534445      -1.16860023      -0.13499696       0.14301439      -0.14731218
