20
Properties=species:S:1:pos:R:3:forces:R:3 Coordinates=T from=T ORCA-job=T run=T Energy:=T 41.7409522=T energy=-79635.0832695946 pbc="F F F"
C        0.04065387      -0.12784061      -0.02162625       0.01212864      -0.00794020      -0.01664482
H        1.55618182       1.22659328      -0.06398671       0.00509208      -0.00494272       0.00055396
Br      -2.01218327      -0.25258447      -0.09828973       0.00195307      -0.00526213       0.01900542
F        3.02241130       0.11182697       0.18117130      -0.01082249       0.01953999       0.00808556
C        0.45323446       1.34690715      -0.01318190      -0.01889622       0.00310185      -0.01990222
C        0.60095274      -0.81633681      -1.24998954      -0.00507117       0.00333958      -0.00142111
H        0.30976561      -1.87099088      -1.28268721      -0.00818217       0.01371177      -0.00781010
H        0.29673528      -0.31041972      -2.16619962      -0.01883193      -0.00598934       0.00468183
H        1.68845540      -0.71930714      -1.10290416       0.02740211      -0.00726647       0.00087822
C        0.51041092      -0.84615230       1.22584355      -0.01509736       0.00899462      -0.00034036
H        1.60275485      -0.67835459       1.20075003       0.04746412      -0.00561347       0.01103265
H        0.06866692      -0.44588106       2.14020351      -0.02488403       0.00573154       0.02879062
H        0.28540361      -1.91458856       1.16803658      -0.00381459      -0.01971311      -0.00520726
C        0.10282135       2.10672204       1.26414402       0.00682535       0.00213414       0.02027887
H       -0.97688698       2.09999847       1.46247039      -0.00020494      -0.00301170      -0.00369547
H        0.62195915       1.70561038       2.13674394       0.01058535      -0.02955504       0.02456259
H        0.42170020       3.14907298       1.15157528      -0.01819744       0.01870330       0.02847603
N       -0.02885806       2.03125161      -1.21527378      -0.02432315       0.03768807      -0.05272137
H        0.45683842       2.91682484      -1.29694861       0.01909776      -0.02617614      -0.01035802
H       -1.01619795       2.24582223      -1.10046675       0.02789294      -0.01461691      -0.01743523
