18
Properties=species:S:1:pos:R:3:forces:R:3 Coordinates=T from=T ORCA-job=T run=T Energy:=T 16.6593485=T energy=-20605.887098168103 pbc="F F F"
C        0.08908868      -0.09900756      -0.01516104      -0.01010790       0.01101416      -0.00894074
H        1.66262317       1.21603704      -0.00317235       0.01446857      -0.00888154       0.00860123
Cl      -1.78964432      -0.13246463      -0.11124505      -0.00762267       0.01092381       0.01503021
F        3.08406655      -0.06916184       0.16502297      -0.00514886       0.00625681      -0.02261133
C        0.56525658       1.34901944       0.02668653       0.00675766       0.00804281      -0.00163379
H        0.23609636       1.85540882      -0.88962297      -0.01387089      -0.00590802       0.00006426
C        0.63285864      -0.76461944      -1.26368213       0.00835611      -0.00356728      -0.00151526
H        0.29893450      -1.80447116      -1.33584091      -0.00077415      -0.00571925      -0.01747962
H        0.32559816      -0.22824073      -2.16748749       0.01694815      -0.00807985      -0.00853904
H        1.72547702      -0.71251620      -1.12187984       0.00532724      -0.00092430      -0.00184355
C        0.53087023      -0.87629537       1.20862064       0.00270624       0.01301470      -0.00481568
H        1.63192885      -0.76504011       1.17920542      -0.01438910      -0.03373656       0.02802962
H        0.10985784      -0.47477651       2.13507940       0.00348973       0.00455308      -0.01222830
H        0.24706176      -1.93081938       1.12235799      -0.00134305       0.02168767       0.01903111
C        0.15788462       2.15770937       1.25079625       0.00451577      -0.01213578      -0.00702310
H       -0.92733309       2.14913593       1.40837721       0.02265376       0.00819190       0.01820145
H        0.64259399       1.77057282       2.15193445      -0.03876075       0.00490919       0.01139918
H        0.47501015       3.20107830       1.14100525      -0.00867047      -0.02048549      -0.00507673
