18
Properties=species:S:1:pos:R:3:forces:R:3 Coordinates=T from=T ORCA-job=T run=T Energy:=T 76.9697180=T energy=-23552.63313122821 pbc="F F F"
C        0.02495816      -0.11689424      -0.00547931       0.01341509       0.02069253      -0.00153158
H        1.64765612       1.15206794       0.02266964       0.00927752      -0.01930384      -0.00446837
Cl      -1.83425516      -0.11418240      -0.04087309      -0.03402422      -0.03157592      -0.00680906
F        2.98340939       0.22393537       0.03092938       0.00588654       0.02247056       0.00289902
C        0.52471290       1.33176856       0.00519437      -0.00140784       0.02510900       0.00267246
C        0.53971538      -0.81128415      -1.25198633       0.00383638      -0.00319054      -0.00427264
H        0.23177582      -1.86057972      -1.26538674      -0.00535277      -0.01854131       0.02158911
H        0.19091382      -0.31510966      -2.15746465      -0.01317424       0.02381060       0.01029011
H        1.63140034      -0.72215953      -1.17134852       0.01471814      -0.00057404       0.00277578
C        0.50111725      -0.83652197       1.24300357       0.00087162      -0.00233655      -0.00396401
H        1.59498732      -0.74007587       1.19998153       0.00949472       0.00342001      -0.00047527
H        0.11490875      -0.38126701       2.15886026      -0.01394186       0.02594612      -0.02080674
H        0.20345056      -1.88819834       1.22332082      -0.00434165      -0.01459383      -0.01862988
C        0.13606519       2.04986032       1.23143429       0.00356135      -0.00508461       0.01860491
N       -0.16168375       2.67831888       2.15080804       0.00332924       0.01602280       0.01683866
N        0.14471276       2.07268931      -1.19047915      -0.00807535       0.01327977      -0.01483149
H        0.75197079       2.87389750      -1.29607548       0.02088876      -0.00792859      -0.00225680
H       -0.80786504       2.40997785      -1.11471941      -0.01197073      -0.00847479      -0.00216528
