16
Properties=species:S:1:pos:R:3:forces:R:3 Coordinates=T from=T ORCA-job=T run=T Energy:=T 136.8617828=T energy=-146900.34716127536 pbc="F F F"
C        1.10722062      -0.06302082       0.10381455       0.01338800       0.08890457      -0.04262629
H        0.92887417       1.90751586      -0.74992077      -0.08320947       0.03504056       0.02577177
Br      -2.78582434      -0.05157266      -0.69890433       0.01013394       0.02830171       0.06009762
Br       3.10027461       0.10383998       0.24952572       0.03369882      -0.09427398      -0.05409189
C        0.54018603       1.36244306       0.11553434      -0.00847589       0.03867209      -0.03440041
H       -0.55470938       1.27882183       0.00129596       0.04541178      -0.00626349      -0.01922480
C        0.77592854      -0.74517339      -1.21414809       0.03224924       0.00863242      -0.01334941
H       -0.31137734      -0.88701746      -1.27160008       0.05570045       0.05225177       0.03368366
H        1.08173084      -0.14159132      -2.07283003       0.07191708      -0.00756155       0.01380683
H        1.27217680      -1.71762128      -1.27218921      -0.00658479       0.02092016      -0.01333179
C        0.61394338      -0.88377200       1.27792274      -0.06336821       0.10898318       0.02603307
H        0.91557399      -0.43976364       2.22872353      -0.03964697      -0.01426087       0.04489029
H       -0.48142239      -0.91475704       1.21593131       0.03760732      -0.04355038       0.03280036
H        1.00531674      -1.90046355       1.22195026       0.00269622      -0.05328323       0.03372321
C        0.84909942       2.14102570       1.31987107      -0.09054238      -0.14866863      -0.05153738
N        1.07566455       2.75703498       2.26493893       0.00587117      -0.00339036      -0.04250496
