19
Properties=species:S:1:pos:R:3:forces:R:3 Coordinates=T from=T ORCA-job=T run=T Energy:=T 203.1193554=T energy=-32923.54833228622 pbc="F F F"
C        0.00448722      -0.13440794       0.05569653       0.11877064       0.06484849      -0.02786235
H        1.59858282       1.25513255      -0.05815081      -0.16484273      -0.02127798       0.08481661
Cl      -1.83905342      -0.14982376       0.14699469       0.02005805      -0.05826923       0.03372869
Cl       3.63233585       0.48956555      -0.70480650       0.12154627      -0.02794890      -0.02947796
C        0.49175582       1.32531357      -0.02351350      -0.11716956       0.13995411      -0.06102680
C        0.44169903      -0.93571270      -1.17880225       0.01257604       0.00840324      -0.03944880
H       -0.37665784      -1.10237120      -1.88157016       0.00008494       0.10360538       0.01113260
H        1.26488315      -0.43049017      -1.68840869       0.06381677      -0.07238914       0.07568194
H        0.82509462      -1.90721199      -0.85847431      -0.05156011      -0.02529685      -0.10157604
C        0.53392402      -0.77703210       1.32765100      -0.01394528      -0.03753968       0.03487762
H        1.62569656      -0.67538742       1.32140513      -0.03105234      -0.09399870      -0.01566289
H        0.13350392      -0.30481307       2.22606677       0.01209095       0.08027016      -0.00256560
H        0.26612011      -1.83501790       1.34767103       0.02606226      -0.04982296       0.04520611
C        0.11488031       2.07566194       1.17618186       0.07086301      -0.10135134       0.19889018
N       -0.17361801       2.66155650       2.12377952      -0.02671089       0.08507369      -0.01172221
C        0.05157369       2.11457116      -1.25286550      -0.03645702       0.07448999      -0.12230068
H        0.51333934       1.70742467      -2.15357310      -0.01725416      -0.08621856      -0.00792571
H       -1.03865699       2.11205119      -1.36668303       0.10285890       0.05673046      -0.00061489
H        0.40366477       3.14598597      -1.15268285      -0.09928352      -0.04405001      -0.07375100
