16
Properties=species:S:1:pos:R:3:forces:R:3 Coordinates=T from=T ORCA-job=T run=T Energy:=T 265.7535743=T energy=-22047.938745302952 pbc="F F F"
C        0.07776228      -0.05105393      -0.06923440       0.03432280       0.02902358       0.09428471
H        1.74881046       1.27956336      -0.40889852       0.15693710      -0.18416384       0.03303225
F       -1.33526076       0.10703220      -0.06655106       0.03578018       0.02316208       0.05892971
Cl       3.88885837       0.09439705       0.39368710      -0.07923637      -0.00988742      -0.04482533
C        0.68264322       1.34790205      -0.17103132       0.02057243       0.08734946       0.11160009
H        0.64092099       1.85598306       0.79655315      -0.13971760       0.02916653      -0.01063597
C        0.42657238      -0.91883521      -1.25617456      -0.03183723       0.09486373      -0.03905434
H       -0.30889916      -1.72271840      -1.32116323       0.07491120      -0.14195458       0.00174571
H        0.38958130      -0.34712964      -2.18227367      -0.01708656       0.03548095      -0.18415298
H        1.43206263      -1.32168488      -1.12652190       0.06434002      -0.00895599      -0.06872501
C        0.46668135      -0.71610989       1.22809682      -0.17632905      -0.02476765       0.10798189
H        1.55337853      -0.71750077       1.34876533       0.04247474      -0.09004989      -0.11385581
H        0.02270258      -0.18914802       2.07219926      -0.08358921       0.13984813       0.09915261
H        0.06739886      -1.73279562       1.22671262       0.12084062      -0.12954094       0.08337500
C        0.01206240       2.16874690      -1.17032862      -0.00100807       0.26150158      -0.22025046
N       -0.47525223       2.84253683      -1.96696065      -0.00887604      -0.10414464       0.08290224
