18
Properties=species:S:1:pos:R:3:forces:R:3 Coordinates=T from=T ORCA-job=T run=T Energy:=T 83.1347519=T energy=-81076.763299966 pbc="F F F"
C        0.99751626      -0.02864366       0.13126354      -0.02217939       0.00586949       0.01604640
H        1.77879343       1.73169186      -0.75278427       0.01697785       0.02505877      -0.02266415
Br      -2.66822127      -1.71745664      -1.25711039       0.00452287      -0.02280423       0.00850030
F        2.31897203      -0.30599821       0.62086335      -0.01648960       0.01259136      -0.03328098
C        1.02561695       1.51036116       0.01876065       0.01534900       0.00649117      -0.00663472
C        0.85662310      -0.69201921      -1.21876028       0.00686781       0.01254129       0.00972172
H        1.08584948      -1.75578187      -1.12212673      -0.02506578       0.01926773       0.00848285
H       -0.17894933      -0.63011266      -1.57340431       0.03225669      -0.01196058       0.00095735
H        1.54192850      -0.25061051      -1.95086539       0.01497580      -0.01005621       0.00987263
C        0.00930486      -0.54283189       1.14961899      -0.03358189       0.00365463       0.03127964
H        0.06614032       0.04059679       2.07014914       0.00521394      -0.00611958       0.02763581
H       -1.00470279      -0.50932930       0.73843207      -0.00867065      -0.01371379      -0.00580391
H        0.22737808      -1.59100372       1.36740540       0.00388246       0.01072546      -0.03268962
N        1.35115754       2.11116054       1.30983705       0.01400417      -0.00139459       0.01382209
H        1.49138267       3.10828984       1.20685582      -0.01789382      -0.01058984      -0.02791839
H        2.22336458       1.70233287       1.62045063       0.00454262      -0.02862472       0.01608792
C       -0.23512096       2.09020807      -0.46865380       0.03158931       0.03137260      -0.01546983
N       -1.15556513       2.65604923      -0.85964611      -0.02357374      -0.00973381       0.01890043
