19
Properties=species:S:1:pos:R:3:forces:R:3 Coordinates=T from=T ORCA-job=T run=T Energy:=T 57.9186815=T energy=-20416.669260014143 pbc="F F F"
C        1.22372038       0.02070091       0.10328005       0.00971934       0.00689295       0.00516553
H        1.53289568       1.84410586      -0.98850350      -0.02482513       0.00231367      -0.00970150
Cl      -2.31450825      -0.91685195      -2.04446002       0.00224349       0.00256382       0.01342316
H        2.22861085      -0.01364570       0.54684918       0.02164226      -0.01893093      -0.00601585
C        0.90960663       1.51797808      -0.14588972       0.00100729       0.01407377       0.00431570
C        1.24713830      -0.75296932      -1.21429319      -0.00075776       0.00528739      -0.00533812
H        0.25752191      -0.78702353      -1.68187998      -0.01797509      -0.01089011       0.00740471
H        1.95916523      -0.31711998      -1.92522190       0.02732668       0.00546708       0.01410707
H        1.55078039      -1.78957823      -1.03369154       0.00337342       0.00223673       0.00265973
C        0.23880509      -0.60973471       1.08526563      -0.00469913      -0.00130909       0.00845744
H        0.57338807      -1.61444947       1.36147314      -0.00474125      -0.00910804      -0.00258619
H        0.15518502      -0.02272695       2.00705267      -0.00747898      -0.00080193       0.01184879
H       -0.75093293      -0.70735251       0.62895756      -0.00265900      -0.00905223      -0.00256716
C        1.34741875       2.32505878       1.00466350       0.02786466      -0.02679079      -0.01123376
N        1.69560532       2.94882597       1.90794127      -0.01096901       0.00982297       0.00757497
C       -0.56017708       1.81835095      -0.46649582      -0.00497395       0.01278684      -0.00912921
H       -0.96085689       1.12414983      -1.21142039       0.00440674       0.00636840      -0.01140085
H       -1.18326358       1.71483544       0.42507421       0.00771795       0.00637177      -0.01207971
H       -0.66601281       2.84218812      -0.83529524      -0.01282276       0.01208498       0.00312927
