17
Properties=species:S:1:pos:R:3:forces:R:3 Coordinates=T from=T ORCA-job=T run=T Energy:=T 178.3337841=T energy=-24557.215849761782 pbc="F F F"
C        1.17755987      -0.01649245       0.00809507       0.02801054       0.00788348       0.00665055
H        1.59204702       2.05373679       0.02057264      -0.01135896      -0.00681778       0.00074801
Cl      -2.36294844      -0.21707238      -0.03360723      -0.01718533       0.00436151      -0.00269073
F        2.59642200       0.13900468       0.02846958       0.00875306      -0.05080949      -0.00410268
C        0.66308544       1.47111732       0.00644155       0.02783522      -0.01130045      -0.00061515
C        0.83385544      -0.76655865      -1.25692290      -0.01395645       0.01781214      -0.04417373
H       -0.25396111      -0.84653893      -1.34419731       0.02401088       0.00857522       0.00008498
H        1.24019998      -0.25084607      -2.13153936      -0.01874950      -0.02760027      -0.00211254
H        1.26749154      -1.76840659      -1.20445487       0.02863485       0.01533460      -0.00159078
C        0.80322252      -0.77917579       1.25651926      -0.01726207       0.00590444       0.05114669
H        1.30797946      -1.74802111       1.23901250       0.01587362      -0.00499224      -0.01084684
H        1.11509380      -0.23769961       2.15354439       0.00173728      -0.01981928       0.00146686
H       -0.28034125      -0.92842435       1.27713753       0.01206291       0.03818024       0.00701512
C       -0.04488154       1.89623801       1.22114897      -0.01570280       0.02013378       0.00861928
N       -0.43543817       2.30831056       2.21971887      -0.02055525      -0.00296274      -0.02689258
C       -0.01243244       1.90412769      -1.22406060      -0.01255935       0.00124645      -0.02477711
N       -0.37738615       2.31572695      -2.23256251      -0.01621935       0.00287753       0.04134058
