15
Properties=species:S:1:pos:R:3:forces:R:3 Coordinates=T from=T ORCA-job=T run=T Energy:=T 11.3378776=T energy=-19536.162250839217 pbc="F F F"
C        0.14729285       0.00916386      -0.00710784       0.02895611      -0.00522381      -0.00053903
H        1.85757002       1.17056015       0.02071995       0.03623898      -0.03407383       0.00147184
Cl      -1.71994979       0.19933962      -0.04177892      -0.01916027       0.00360867       0.00007972
F        3.14196913      -0.29912523       0.04777337      -0.00936946      -0.00562969      -0.00244663
C        0.77585823       1.38795177       0.00074151       0.00718214      -0.02846325      -0.00060258
H        0.47805216       1.95738336       0.88691885      -0.01145506       0.02804295      -0.00787902
H        0.51036110       1.95325375      -0.89826859      -0.01400168       0.02759169       0.00810071
C        0.57824066      -0.75862769      -1.24065562       0.00692134       0.00966460       0.01967160
H        0.13601864      -1.75960631      -1.26138738      -0.01964864      -0.00472047      -0.02992101
H        0.30847559      -0.22439388      -2.15719436      -0.02112640      -0.01982888      -0.01881424
H        1.67454039      -0.81755668      -1.12994716       0.03510981       0.00920947       0.02521766
C        0.53450245      -0.75232786       1.24471025       0.00878808       0.00957028      -0.02131384
H        1.63413431      -0.81064595       1.17258279       0.03806155       0.00750081      -0.02305074
H        0.23232641      -0.21385433       2.14852688      -0.02255304      -0.02003501       0.01963934
H        0.09272515      -1.75361345       1.25467527      -0.02175040      -0.00558033       0.02873458
