17
Properties=species:S:1:pos:R:3:forces:R:3 Coordinates=T from=T ORCA-job=T run=T Energy:=T 58.1210460=T energy=-22401.577703459916 pbc="F F F"
C        1.26237825      -0.10371102      -0.02589652       0.00209141       0.02898076       0.01317137
H        1.98468514       1.50001011       1.25101751       0.03355105       0.00803682      -0.01198684
Cl      -2.69558892      -1.19534974       0.61781951       0.00373729      -0.03132150      -0.01883003
H        2.29154633      -0.36768705      -0.31798043      -0.00785708      -0.00419577      -0.00251399
C        1.39038907       1.37634963       0.34518464      -0.01186328       0.02686399       0.01971607
H        1.81867570       1.95109096      -0.47764109      -0.00616088      -0.02377293       0.00213062
C        0.33725089      -0.32351364      -1.22259022       0.00846490       0.00105896      -0.00215088
H       -0.71297389      -0.25324909      -0.92154090      -0.00293345       0.02109535      -0.02036757
H        0.53438507       0.39855813      -2.02252023       0.00433011      -0.01148396      -0.02111751
H        0.47759599      -1.33082595      -1.62492248      -0.00245747      -0.01864529       0.01203020
C        0.85802270      -0.97075012       1.16581738      -0.00294049       0.01138190      -0.00279443
H        1.45042473      -0.72950022       2.05662545       0.00669943      -0.01308612      -0.00326871
H       -0.20703833      -0.85967732       1.39259025       0.00201280       0.00439842       0.02143990
H        1.01829918      -2.02695470       0.92720205      -0.03042621       0.00891154       0.00413875
N        0.08152993       2.04515501       0.64224584      -0.01015593       0.00125247       0.00810087
O       -0.50341970       2.55273965      -0.29132892      -0.00029562       0.01325680      -0.01968214
O       -0.28954843       2.05936478       1.79419406       0.02062319      -0.01089743       0.01062531
