18
Properties=species:S:1:pos:R:3:forces:R:3 Coordinates=T from=T ORCA-job=T run=T Energy:=T 72.7144626=T energy=-13179.282965183687 pbc="F F F"
C        0.15708111      -0.00155091       0.01480400      -0.02873887       0.00819361      -0.01932015
H        1.69796520       1.39131327      -0.16302098       0.00014127       0.03475387      -0.00988531
F       -1.28351577       0.02392901       0.12824989       0.00216557       0.01400597       0.02076339
F        3.06622883      -0.17561376       0.21232983      -0.01352275       0.02292449       0.00056991
C        0.60710748       1.46319731      -0.08607527       0.00099639      -0.02334663      -0.00787658
C        0.50192900      -0.80486845      -1.22241389      -0.01658301       0.00400240       0.00364182
H        0.10139753      -1.82089744      -1.11906683       0.02964709      -0.01335299      -0.00773804
H        0.10856888      -0.34913755      -2.13311234       0.02107581       0.01327791      -0.00388172
H        1.59792937      -0.82819769      -1.23098446      -0.02002545      -0.03679398       0.01121227
N        0.70208426      -0.54647259       1.22246494      -0.00608703       0.00648039      -0.04429402
H        1.74639584      -0.46465352       1.02951268       0.00539487      -0.01560852       0.03491513
H        0.50117520      -1.54304615       1.23118586      -0.01179471       0.01679700      -0.01237118
N        0.26250636       2.22956145       1.11891168       0.01154469      -0.01469169      -0.02507663
H        0.73129140       1.75981371       1.88878962      -0.00284576       0.01506231       0.00015280
H       -0.72541286       2.04556383       1.28850612       0.02226010       0.00531016       0.03944749
N        0.03938677       2.08418135      -1.27702854       0.00190651      -0.01219781       0.01969529
H        0.28309405       3.06754301      -1.23752983      -0.00182107      -0.00799394       0.01838007
H       -0.97262557       2.04014956      -1.19022086       0.00245992      -0.02536314      -0.00917802
