15
Properties=species:S:1:pos:R:3:forces:R:3 Coordinates=T from=T ORCA-job=T run=T Energy:=T 68.4730238=T energy=-12677.218421449163 pbc="F F F"
C        0.12384980      -0.15822267       0.06583981       0.00865594       0.00752536       0.01054985
H        1.58715008       1.31952524       0.02352815       0.00723867      -0.01536836      -0.00832272
F       -1.27643438      -0.30116780       0.21743184      -0.00610116      -0.00202573      -0.00659714
F        2.99608557       0.15219662       0.03554949       0.00483080      -0.00187597       0.01357320
C        0.47621763       1.32866945       0.03283848      -0.00100978       0.01958281       0.01254710
H        0.09901962       1.79593972      -0.88202642      -0.00820136      -0.00879382       0.00764928
C        0.51752520      -0.80438404      -1.25205097      -0.00155032       0.00450979      -0.00076963
H        0.01276708      -0.34674185      -2.11002260       0.00200157       0.00968507      -0.00104128
H        1.60331568      -0.67209185      -1.30887317       0.00653477      -0.00013766      -0.01989857
H        0.26660106      -1.87020148      -1.22805373      -0.00627950      -0.00746663       0.00278744
N        0.77682780      -0.73223776       1.20371802      -0.00098000      -0.01099320       0.00459314
H        1.78305013      -0.52104366       1.01279762      -0.00772978       0.00284676       0.00162435
H        0.66363070      -1.74027236       1.16045952       0.01145820      -0.01055823      -0.00760507
C       -0.04354571       2.07213967       1.17521869       0.00883606      -0.02169464      -0.02837371
N       -0.45330985       2.70907727       2.04216496      -0.00531948       0.02477994       0.01068411
