15
Properties=species:S:1:pos:R:3:forces:R:3 Coordinates=T from=T ORCA-job=T run=T Energy:=T 68.1136520=T energy=-80007.36369369848 pbc="F F F"
C        0.62929197      -0.03542977      -0.14598718       0.00823522      -0.02629166       0.02281052
H        1.85603769       1.70551696      -0.28080757      -0.03362194       0.01674104       0.00580486
Br      -2.63174176      -1.01381994       0.99202183       0.00784967       0.01326713       0.01774233
F        1.53993303      -0.46970243       0.86425672       0.02225791      -0.01387425      -0.01920811
C        0.78642808       1.48814272      -0.14670691      -0.01365785      -0.01106219       0.00100098
H       -0.37393629      -0.33067318       0.18377504       0.02107691       0.00045681      -0.02083216
N        0.92842449      -0.63452027      -1.38906654       0.02116301       0.00737515      -0.01163164
H        0.60093222      -1.59045305      -1.40878321      -0.00696799       0.01823204       0.00305183
H        1.92051715      -0.61014867      -1.59159529      -0.02469669       0.01707254       0.01531601
C        0.29425575       2.07897360       1.18044274       0.01394627      -0.01224223      -0.00982675
H       -0.73446335       1.75812825       1.37073430       0.02884572       0.01793889      -0.01230474
H        0.92394864       1.70478228       1.98912248      -0.03465531      -0.01076838       0.00541152
H        0.33749734       3.17189911       1.17194598       0.00857592      -0.03331634      -0.00862426
C        0.09114513       2.10830161      -1.28013817      -0.02400116       0.00859775      -0.01651249
N       -0.42336212       2.66409243      -2.14543452       0.01733073       0.00634356      -0.00405048
