15
Properties=species:S:1:pos:R:3:forces:R:3 Coordinates=T from=T ORCA-job=T run=T Energy:=T 88.7801503=T energy=-22484.426620569066 pbc="F F F"
C       -0.09235438      -0.05628634      -0.03620579       0.01855890      -0.02948582      -0.05805887
H        1.55757392       1.27206755      -0.00506804       0.05941763      -0.05576057      -0.00638314
F       -1.49736220       0.01390947      -0.10252576       0.01095427      -0.02763799       0.02768212
Cl       3.51127328      -0.41412354      -0.17817527      -0.05987974       0.01546241      -0.04987208
C        0.46425849       1.37086704      -0.02275431       0.01493621      -0.03346655      -0.00764610
H        0.11656397      -0.56872851       0.91195346       0.02031837       0.09345781       0.02774822
N        0.37642461      -0.74442548      -1.19468561       0.02129603      -0.03511600      -0.01460752
H        0.15083244      -1.72691502      -1.10478220      -0.05210556      -0.04655717      -0.00143510
H        1.39960499      -0.69587124      -1.19261789       0.05156570       0.02351172       0.03852785
C        0.06667722       2.06505156       1.20129512      -0.09976369       0.08532868       0.01344215
N       -0.26102119       2.65047208       2.13572314      -0.00222800       0.00110398       0.07572678
C        0.00891933       2.15020920      -1.25940920       0.00222316      -0.03404845      -0.00859302
H        0.31093481       1.58758960      -2.14152912      -0.00298320       0.04981142      -0.06578489
H       -1.07946055       2.23679768      -1.26327747       0.00106771       0.04476734      -0.03445338
H        0.44880276       3.14996284      -1.29812692       0.01547903      -0.04448969       0.06702067
