13
Properties=species:S:1:pos:R:3:forces:R:3 Coordinates=T from=T ORCA-job=T run=T Energy:=T 30.3169490=T energy=-14662.238741992993 pbc="F F F"
C        1.07562460      -0.07002963       0.16879586       0.06297336      -0.00429307      -0.03505703
H        0.92905683       1.93022475      -0.64208971       0.02300463      -0.02225834       0.11419126
F       -1.29302568       0.45118899      -1.79012273       0.00077519       0.01513608       0.05183013
F        2.47683299       0.14133594       0.38664200      -0.01160405       0.05065218       0.05247862
C        0.41201410       1.28226380       0.06779868      -0.04952233      -0.05149956      -0.04511901
H        0.75939910      -0.57857612       1.08609768       0.03668100      -0.01024342      -0.00968913
H       -0.61038328       1.15032514      -0.36498354       0.03747553      -0.03680818      -0.00688462
N        0.86310767      -0.78893029      -1.02104145      -0.01084110       0.03831922      -0.07102230
H        0.02837604      -0.38598581      -1.52322580      -0.07656031      -0.09782815       0.00568686
H        0.72620815      -1.77199951      -0.83757051      -0.01714659       0.01689020      -0.00744846
N        0.35886853       2.01680701       1.35614378       0.07035415       0.10166406       0.01043547
O        0.01206874       3.18282912       1.29855646       0.06575477      -0.04024728       0.04171039
O        0.62816540       1.44619564       2.39778867      -0.13731042       0.03120986      -0.10165246
