14
Properties=species:S:1:pos:R:3:forces:R:3 Coordinates=T from=T ORCA-job=T run=T Energy:=T 18.4140241=T energy=-19973.96243998692 pbc="F F F"
C        0.78409852      -0.07152589      -0.10851540       0.08895841      -0.26423171      -0.08906052
H        2.03932931       1.60994345      -0.57732425      -0.00781776      -0.02353017       0.09633324
Cl      -2.53332876       0.16395079       1.10320624       0.01012015       0.02015270      -0.01083256
F        1.83074820      -0.58770446       0.72992163       0.00627864       0.10584600      -0.00907537
C        1.00741080       1.41667211      -0.24739847      -0.11247007      -0.15285468       0.06589723
H       -0.15190759      -0.25804320       0.43008107      -0.01499998      -0.06834043      -0.22267383
H        0.88032349       1.82100522       0.75838698       0.09404963       0.21414024       0.01825231
N        0.80434882      -0.74083009      -1.36693581       0.05497423      -0.03138736       0.10892731
H        0.52910593      -1.70934075      -1.26680841       0.00822183       0.04970710       0.04367989
H        1.74137131      -0.70610802      -1.75627437      -0.06487211      -0.02152446       0.01252766
C        0.00275781       2.02452831      -1.21594999      -0.01519716       0.08427457      -0.07557316
H        0.25130088       1.72677390      -2.23573434      -0.08362742      -0.03792519      -0.09599895
H       -1.01270372       1.67366560      -0.99787790       0.09343294       0.07804850       0.09015331
H        0.02304095       3.11759292      -1.17230372      -0.04577282       0.04574030       0.05264358
