15
Properties=species:S:1:pos:R:3:forces:R:3 Coordinates=T from=T ORCA-job=T run=T Energy:=T 68.6174142=T energy=-77302.75441241977 pbc="F F F"
C        0.36295745       0.04184990       0.00054925       0.06830957      -0.08383872      -0.06112347
H        1.47372221       1.78810671      -0.10740121       0.05852560       0.03092935      -0.00962551
Br      -1.53317118      -0.54257541       0.39609556      -0.05760890       0.00861723       0.09150690
H        2.63386075      -1.87551639       0.10130740      -0.02094093      -0.02810904       0.03658872
C        0.39879174       1.58277712      -0.06345788       0.02604550      -0.04641188      -0.03359426
H        0.94281936      -0.30918494       0.86633513      -0.01663901       0.00150251      -0.00445487
N        0.88566232      -0.55715389      -1.15550233      -0.00227518       0.04350231      -0.04867459
H        0.18422088      -1.00734043      -1.72765416       0.05970973       0.11640881      -0.02067965
H        1.62732418      -1.25480532      -0.81283434       0.03586712      -0.05250994       0.06312058
C       -0.10154053       2.23370936       1.15130228      -0.13479553       0.06535746      -0.03240755
N       -0.51334370       2.79507481       2.06744561       0.06690864      -0.00440873       0.04631002
C       -0.25321832       2.16148305      -1.31541896      -0.01949367      -0.01536738      -0.01727615
H        0.20072541       1.66788318      -2.17548062      -0.02902665      -0.02490934      -0.02879180
H       -1.32769012       1.97023639      -1.31894885      -0.04445164      -0.01282346      -0.00311672
H       -0.09068344       3.23879400      -1.39723539       0.00781428       0.02135426       0.05163197
