14
Properties=species:S:1:pos:R:3:forces:R:3 Coordinates=T from=T ORCA-job=T run=T Energy:=T 104.4247738=T energy=-22920.674297531114 pbc="F F F"
C       -0.04297766      -0.04648816      -0.23257640      -0.00249844       0.00426317      -0.01082450
H        1.45681396       1.42774143      -0.55005546      -0.02665709       0.00927592       0.00032722
F       -1.41095403      -0.11087251      -0.50753546       0.00197625       0.01141141      -0.01423744
Cl       3.05014935      -0.16632598       1.06441505      -0.01294500       0.01051304       0.00828081
C        0.42574038       1.41618320      -0.17289491      -0.00847684       0.00104505       0.01253244
H        0.07827707      -0.48648687       0.76388482      -0.00778561       0.03455110      -0.00031722
N        0.65112603      -0.73463246      -1.28104734      -0.00408376      -0.00750403      -0.02318436
H        0.34479550      -1.70105514      -1.28255316       0.00418050      -0.01175367       0.00522283
H        1.63275436      -0.74467265      -1.00352693       0.01241717      -0.02803396      -0.00780145
N        0.33530500       1.91025672       1.20064620       0.01691523       0.00155433       0.00960381
H        0.61379354       2.88548945       1.21343462      -0.01059527       0.00880654      -0.00804471
H        1.07245998       1.41114430       1.69948795       0.01157697      -0.02110567      -0.00197089
C       -0.37278421       2.26492428      -1.07220262       0.03143097       0.01242904       0.01279379
N       -0.93981211       2.98599832      -1.76580971      -0.01821930      -0.02336301       0.01253049
