19
Properties=species:S:1:pos:R:3:forces:R:3 Coordinates=T from=T ORCA-job=T run=T Energy:=T 80.4731962=T energy=-84132.33546915984 pbc="F F F"
C        1.13744589       0.03848933       0.08536269       0.05190753       0.04013714      -0.01272446
H        1.70012401       1.90913965      -0.49398003       0.00513824      -0.04222279      -0.02926217
Br      -2.32797521      -1.22883337      -1.64272195      -0.01470859      -0.01894137      -0.03667810
F        2.46970528      -0.05383418       0.47647975       0.00214021      -0.01911864       0.09075341
C        0.78812595       1.53003358      -0.01702640       0.00864115       0.01145597      -0.03520020
N        0.96096795      -0.67393742      -1.09449396       0.03115811       0.05839892       0.00060202
H       -0.02577540      -0.67433836      -1.38780239       0.01386304      -0.06746819      -0.09515744
H        1.22053765      -1.64185075      -0.93774608      -0.00604802       0.01756460      -0.00844322
N        0.46113618      -0.75529475       1.28228094      -0.07977625      -0.00263553      -0.02397780
O       -0.29772326      -0.19906048       2.03920621      -0.05229420       0.01321988       0.02087640
O        0.76703679      -1.92459859       1.34157963       0.04682351       0.01361195       0.03640405
C        0.64593785       2.28662825       1.30650601       0.00812437      -0.02441811      -0.00890407
H       -0.34364745       2.15350835       1.73958949      -0.00253050      -0.01328058       0.00555119
H        1.38125705       1.96130460       2.04692037       0.03328406       0.03450609      -0.00468187
H        0.79602430       3.35625699       1.12067785       0.05529090      -0.03542285      -0.01043331
C       -0.37231011       1.81567667      -0.96825836      -0.03916830       0.00616377       0.02629744
H       -0.10696250       1.55787695      -1.99611660      -0.06363055       0.01032056       0.02390839
H       -1.27204547       1.24637777      -0.72682841      -0.02991607      -0.00881427       0.07213530
H       -0.61718949       2.88218068      -0.93397330       0.02249778       0.00881457      -0.01270523
