14
Properties=species:S:1:pos:R:3:forces:R:3 Coordinates=T from=T ORCA-job=T run=T Energy:=T 171.0956513=T energy=-17172.488833946285 pbc="F F F"
C        1.19699661       0.00763534      -0.11161485       0.01643847      -0.18419728       0.24125113
H        1.31821314       2.02678267       0.54745643      -0.22057874      -0.00249831      -0.10374837
F       -1.53465686      -0.15146396      -0.09098455       0.02689918      -0.11410893       0.00819020
F        2.58237989       0.09462235      -0.15281919       0.12455538      -0.09148579      -0.13600766
C        0.59994378       1.39655395       0.00872102      -0.04835384       0.07915755       0.16101491
H       -0.34147328       1.26364772       0.56888390       0.16212021       0.07438305      -0.40462863
N        0.66589637      -0.77747006      -1.10381929      -0.01686531      -0.00266324       0.47396987
H       -0.39545829      -0.68516242      -0.84382808      -0.04589530      -0.08541729      -0.29872320
H        1.01141817      -1.72872638      -0.98898766      -0.14484540       0.18524188      -0.00247224
N        1.03549411      -0.68811872       1.34095846       0.15511004       0.08918599       0.09749383
O        0.77409915      -0.01716490       2.31596992       0.09161686       0.00867733      -0.24514321
O        1.27031209      -1.87678581       1.37132007      -0.06854739       0.01181552      -0.10061137
C        0.27571590       1.97135051      -1.30087679      -0.30658866       0.09818294       0.14420104
N       -0.06089654       2.48214650      -2.27669573       0.28392118      -0.05424242       0.16235548
