15
Properties=species:S:1:pos:R:3:forces:R:3 Coordinates=T from=T ORCA-job=T run=T Energy:=T 86.4164350=T energy=-17524.45572164323 pbc="F F F"
C        0.06151186      -0.09865922       0.38261662      -0.01726350      -0.00710991       0.00217094
H        1.23100136       1.08601262       1.76905018      -0.00873837       0.01368200      -0.08121106
F       -1.21271299      -0.03020754       0.96572443      -0.03211553      -0.02341462       0.01271164
H        2.35668950       0.44069538      -1.60959095      -0.00059867       0.01102761       0.00650066
C        0.87310675       1.12625027       0.74537670      -0.04360687       0.02505482      -0.01970812
H        1.69627746       1.19355903      -0.00546965       0.03192313      -0.04610476       0.02615148
N        0.04256191      -0.36970231      -0.94145925      -0.00158120       0.01663444      -0.00089008
H       -0.25027471      -1.31321772      -1.15239697       0.01191361      -0.00995913       0.03408527
H        0.97759001      -0.08418048      -1.39320096       0.02043069       0.00680368      -0.06436607
N        0.62642407      -1.33766025       1.24392573      -0.00928201      -0.04739743      -0.03685629
O        0.36227541      -2.43210096       0.79807193       0.04770388       0.02118159       0.07104424
O        1.23614946      -1.13592236       2.27115464      -0.03621711      -0.01881668      -0.03137666
N        0.06709040       2.36955958       0.62845835      -0.01444627       0.01380836       0.02990556
O       -0.61229961       2.54302325      -0.35524009       0.02166064      -0.00731718      -0.00391496
O        0.18343792       3.17398878       1.53744961       0.02930037       0.04190321       0.03363622
