14
Properties=species:S:1:pos:R:3:forces:R:3 Coordinates=T from=T ORCA-job=T run=T Energy:=T 195.0218391=T energy=-13113.440431761284 pbc="F F F"
C       -0.13436238      -0.12034968      -0.11091313       0.07320114      -0.00509026      -0.08287468
H        0.45102302       1.76153944      -0.83746369      -0.00666826      -0.01394184       0.08303262
F       -1.27913368      -0.21154933      -0.97641665      -0.06964021       0.00833967       0.00137727
F        3.05400452       0.72482281      -0.26160838      -0.03735596       0.02830788      -0.05500927
C        0.09638221       1.36770324       0.13046600       0.02028978      -0.00870059      -0.05495494
H       -0.87981370       1.81365426       0.34877883       0.01808706       0.03776695       0.04959553
N        0.97434519      -0.72485612      -0.69999564       0.15929428       0.00015334       0.17174222
H        1.10916477      -1.68842879      -0.43551658      -0.10749375      -0.04699354       0.02586787
H        1.88291232      -0.16813698      -0.58166406      -0.05569973      -0.04019637      -0.12639208
C       -0.61395101      -0.79247148       1.13392310       0.05307814       0.02708054      -0.12586700
N       -0.99076750      -1.35311743       2.06407738      -0.05036799      -0.07882106       0.08155865
N        1.03031635       1.54605782       1.22959468      -0.10414211       0.04591729      -0.13259327
H        1.10626769       2.54000644       1.41237054      -0.00472569       0.01005511       0.05767540
H        1.94780225       1.25615678       0.83258955       0.10320403       0.05071347       0.11025566
