18
Properties=species:S:1:pos:R:3:forces:R:3 Coordinates=T from=T ORCA-job=T run=T Energy:=T 174.2648460=T energy=-11045.419819393119 pbc="F F F"
C        1.13385706      -0.11864362      -0.06567135      -0.00332542       0.02770266       0.02248836
H        1.86359558       1.91903197       0.02151039       0.00142943      -0.00710894      -0.00208954
F       -1.74541402       0.13593786      -0.03118309      -0.00841238       0.00049751      -0.01536927
H        2.21412477      -0.23710160      -0.24889873      -0.02011124      -0.01134195       0.01491461
C        0.87897329       1.43306193      -0.03310605      -0.00362796       0.02720415      -0.00768540
N        0.42234381      -0.72515125      -1.18915115       0.02073415      -0.00743978       0.04075981
H       -0.58225382      -0.56304619      -0.93478633       0.03408371      -0.00804061      -0.01137718
H        0.58612041      -1.72671099      -1.13564632      -0.01063861       0.00323625      -0.00938816
C        0.77387297      -0.78205718       1.26814427      -0.00327965       0.01074732      -0.01036987
H        1.27015228      -0.32518151       2.13414213      -0.01601347       0.00602226      -0.03123980
H       -0.31395636      -0.68654078       1.36167519       0.00569730       0.00056433      -0.00025869
H        1.05180614      -1.84387118       1.24102969      -0.00443573       0.00481694      -0.00767399
C        0.19518807       1.90689491       1.18353298       0.01403247      -0.03663974       0.00353522
N       -0.22601666       2.37907004       2.14540795       0.01362253       0.02088517       0.00194459
C        0.13006951       1.97469604      -1.25716804       0.00062713       0.00013731      -0.01134938
H        0.61606293       1.62317431      -2.16858588      -0.03388190       0.00285306      -0.01156722
H       -0.88556973       1.57180984      -1.19706076       0.02730883      -0.01137569      -0.01185629
H        0.11519638       3.07141203      -1.24884004      -0.00225074      -0.02492269       0.03650593
