18
Properties=species:S:1:pos:R:3:forces:R:3 Coordinates=T from=T ORCA-job=T run=T Energy:=T 184.6042558=T energy=-13746.585074782774 pbc="F F F"
C        1.19079176      -0.02726272       0.03733087       0.01424086      -0.11743264      -0.13567688
H        1.70855351       2.02242347       0.03902848      -0.03521857       0.04884593       0.03817359
F       -1.66045136      -0.19516159      -0.01274817       0.04341217      -0.06338787       0.03177933
F        2.61407155      -0.01199988      -0.06259177       0.07230877      -0.04670023       0.01185325
C        0.76131160       1.47289440       0.01108608      -0.01740217      -0.19507997      -0.02788189
N        0.68520023      -0.69636019      -1.11770306      -0.06788934       0.10632030      -0.13702623
H       -0.34709248      -0.65556254      -0.95673551      -0.12242879       0.03043225      -0.02739816
H        0.96900691      -1.66970694      -1.09041915       0.00125467      -0.02031438       0.13539194
C        0.85295971      -0.74447914       1.33184361       0.09845367       0.06972142      -0.06935744
H        1.16644124      -1.78910282       1.22778934       0.07789759       0.04101730       0.10078559
H        1.35446962      -0.29648768       2.19371834      -0.01920381      -0.03178009       0.10563094
H       -0.23580125      -0.70579363       1.41173611      -0.02768355      -0.07121212      -0.00064900
C       -0.16648822       1.91327781       1.15120974       0.04871961       0.03250962      -0.12207216
H       -1.05525920       1.27526931       1.04879197      -0.03610089       0.09129587       0.11334699
H        0.31565042       1.81716135       2.13254844      -0.05272417      -0.09552299      -0.13735767
H       -0.42794614       2.96354674       1.00868590      -0.07896428       0.09410766       0.04173931
C        0.12821938       1.84499037      -1.26924183       0.02093904       0.20140777      -0.01207031
N       -0.33806990       2.29874009      -2.21926352       0.09142607      -0.05639375       0.10003917
