15
Properties=species:S:1:pos:R:3:forces:R:3 Coordinates=T from=T ORCA-job=T run=T Energy:=T 40.0110606=T energy=-77306.83660615583 pbc="F F F"
C        1.12643830      -0.16605364      -0.14545002      -0.00418755       0.00643143      -0.01291452
H        1.11069317       1.85076225       0.72675737       0.00594072       0.00486410       0.00353823
Br      -2.62634490      -0.20821032       0.88773009      -0.00733903       0.00068596      -0.01239006
H        2.15174921      -0.12738157      -0.53981227       0.00118702       0.01713576      -0.00012300
C        0.59075133       1.28599736      -0.05485293       0.00219373       0.01096427       0.00092616
H       -0.47606991       1.24772950       0.20597929       0.01056795      -0.00861166       0.01922093
N        0.34826749      -1.01729561      -1.03361835      -0.00710103      -0.00542409      -0.00283335
H        0.26956349      -0.57647740      -1.94448435       0.01122750      -0.01691870      -0.00880953
H       -0.60163885      -1.07965570      -0.66434410      -0.00080360       0.01780197       0.02547502
C        1.15654655      -0.77970934       1.24855070      -0.00310605       0.00453554      -0.00953256
H        1.81753056      -0.21559329       1.91639739       0.00631873      -0.01228912      -0.00400871
H        0.14885790      -0.78421615       1.67533069      -0.00539098      -0.02327661      -0.01075844
H        1.51270584      -1.81102596       1.18498934       0.00196418       0.00639260       0.01514910
C        0.76400836       2.00158847      -1.31652383      -0.00890722      -0.01435137       0.00190717
N        0.93540749       2.53894497      -2.32058573       0.00113092       0.00478202      -0.00851646
