17
Properties=species:S:1:pos:R:3:forces:R:3 Coordinates=T from=T ORCA-job=T run=T Energy:=T 220.6469180=T energy=-21289.6378933926 pbc="F F F"
C        1.15707276      -0.06652854      -0.11888936       0.02342123      -0.08098704       0.03971868
H        1.85252758       1.92123539       0.32013852       0.01886500       0.02311924      -0.00841990
Cl      -2.55824059      -0.26931949       1.11377512      -0.03916035      -0.03601485       0.03223875
H        2.10794170      -0.18171309      -0.66139555       0.01563935       0.00110647      -0.02043860
C        0.91314711       1.47467728      -0.03478829       0.02813243      -0.06123679       0.01856448
N        0.15646700      -0.84836878      -0.81798604       0.01040307       0.08831761      -0.10876195
H        0.02271499      -0.49417940      -1.75776208      -0.02771899       0.02115979      -0.02676260
H       -0.74441415      -0.79613141      -0.33948491       0.01537079      -0.03309361       0.05151041
C        1.31887679      -0.64547432       1.28227806       0.01110076      -0.01835899       0.01490505
H        2.00940832      -0.05591033       1.90069172      -0.04721015      -0.00893972      -0.02853299
H        0.34030988      -0.69270096       1.77415760       0.08610427       0.01524042       0.02078449
H        1.70915874      -1.66433034       1.20604936      -0.05599933       0.03394301       0.03258120
N       -0.14976578       1.95932639       0.82574448      -0.02265923       0.01764136      -0.00094702
H        0.10372061       1.75172229       1.78389845      -0.01872170       0.01563717       0.03747807
H       -1.01299130       1.43183870       0.67617524      -0.01838805       0.00810836      -0.02130902
C        0.72224042       1.99585782      -1.40254817       0.00073907       0.00983033       0.00102702
N        0.59981280       2.35734097      -2.48788508       0.01820261       0.01100050      -0.03726943
