 Entering Gaussian System, Link 0=g16
 Initial command:
 /apps/gaussian/16/A.03/g16/l1.exe "/beegfs/scratch/user/q/tla25/Gau-117397.inp" -scrdir="/beegfs/scratch/user/q/tla25/"
 Entering Link 1 = /apps/gaussian/16/A.03/g16/l1.exe PID=    117398.
  
 Copyright (c) 1988,1990,1992,1993,1995,1998,2003,2009,2016,
            Gaussian, Inc.  All Rights Reserved.
  
 This is part of the Gaussian(R) 16 program.  It is based on
 the Gaussian(R) 09 system (copyright 2009, Gaussian, Inc.),
 the Gaussian(R) 03 system (copyright 2003, Gaussian, Inc.),
 the Gaussian(R) 98 system (copyright 1998, Gaussian, Inc.),
 the Gaussian(R) 94 system (copyright 1995, Gaussian, Inc.),
 the Gaussian 92(TM) system (copyright 1992, Gaussian, Inc.),
 the Gaussian 90(TM) system (copyright 1990, Gaussian, Inc.),
 the Gaussian 88(TM) system (copyright 1988, Gaussian, Inc.),
 the Gaussian 86(TM) system (copyright 1986, Carnegie Mellon
 University), and the Gaussian 82(TM) system (copyright 1983,
 Carnegie Mellon University). Gaussian is a federally registered
 trademark of Gaussian, Inc.
  
 This software contains proprietary and confidential information,
 including trade secrets, belonging to Gaussian, Inc.
  
 This software is provided under written license and may be
 used, copied, transmitted, or stored only in accord with that
 written license.
  
 The following legend is applicable only to US Government
 contracts under FAR:
  
                    RESTRICTED RIGHTS LEGEND
  
 Use, reproduction and disclosure by the US Government is
 subject to restrictions as set forth in subparagraphs (a)
 and (c) of the Commercial Computer Software - Restricted
 Rights clause in FAR 52.227-19.
  
 Gaussian, Inc.
 340 Quinnipiac St., Bldg. 40, Wallingford CT 06492
  
  
 ---------------------------------------------------------------
 Warning -- This program may not be used in any manner that
 competes with the business of Gaussian, Inc. or will provide
 assistance to any competitor of Gaussian, Inc.  The licensee
 of this program is prohibited from giving any competitor of
 Gaussian, Inc. access to this program.  By using this program,
 the user acknowledges that Gaussian, Inc. is engaged in the
 business of creating and licensing software in the field of
 computational chemistry and represents and warrants to the
 licensee that it is not a competitor of Gaussian, Inc. and that
 it will not use this program in any manner prohibited above.
 ---------------------------------------------------------------
  

 Cite this work as:
 Gaussian 16, Revision A.03,
 M. J. Frisch, G. W. Trucks, H. B. Schlegel, G. E. Scuseria, 
 M. A. Robb, J. R. Cheeseman, G. Scalmani, V. Barone, 
 G. A. Petersson, H. Nakatsuji, X. Li, M. Caricato, A. V. Marenich, 
 J. Bloino, B. G. Janesko, R. Gomperts, B. Mennucci, H. P. Hratchian, 
 J. V. Ortiz, A. F. Izmaylov, J. L. Sonnenberg, D. Williams-Young, 
 F. Ding, F. Lipparini, F. Egidi, J. Goings, B. Peng, A. Petrone, 
 T. Henderson, D. Ranasinghe, V. G. Zakrzewski, J. Gao, N. Rega, 
 G. Zheng, W. Liang, M. Hada, M. Ehara, K. Toyota, R. Fukuda, 
 J. Hasegawa, M. Ishida, T. Nakajima, Y. Honda, O. Kitao, H. Nakai, 
 T. Vreven, K. Throssell, J. A. Montgomery, Jr., J. E. Peralta, 
 F. Ogliaro, M. J. Bearpark, J. J. Heyd, E. N. Brothers, K. N. Kudin, 
 V. N. Staroverov, T. A. Keith, R. Kobayashi, J. Normand, 
 K. Raghavachari, A. P. Rendell, J. C. Burant, S. S. Iyengar, 
 J. Tomasi, M. Cossi, J. M. Millam, M. Klene, C. Adamo, R. Cammi, 
 J. W. Ochterski, R. L. Martin, K. Morokuma, O. Farkas, 
 J. B. Foresman, and D. J. Fox, Gaussian, Inc., Wallingford CT, 2016.
 
 ******************************************
 Gaussian 16:  ES64L-G16RevA.03 25-Dec-2016
                 7-Feb-2021 
 ******************************************
 %nprocshared=16
 Will use up to   16 processors via shared memory.
 %mem=48GB
 ----------------------------------------------------------------------
 # wB97XD def2tzvp, opt=(ts, noeigen, calcfc, maxcycles=70, maxstep=5),
  freq=noraman, scrf=(iefpcm, solvent=water)
 ----------------------------------------------------------------------
 1/5=1,6=70,8=5,10=4,11=1,18=20,26=3,38=1/1,3;
 2/9=110,12=2,17=6,18=5,40=1/2;
 3/5=44,7=101,11=2,25=1,30=1,70=2201,71=2,72=1,74=-58,140=1/1,2,3;
 4//1;
 5/5=2,38=5,53=1/2;
 8/6=4,10=90,11=11/1;
 11/6=1,8=1,9=11,15=111,16=1/1,2,10;
 10/6=1,13=1/2;
 6/7=2,8=2,9=2,10=2,28=1/1;
 7/10=1,18=20,25=1/1,2,3,16;
 1/5=1,6=70,8=5,10=4,11=1,18=20,26=3/3(2);
 2/9=110/2;
 99//99;
 2/9=110/2;
 3/5=44,7=101,11=2,25=1,30=1,70=2205,71=1,72=1,74=-58/1,2,3;
 4/5=5,16=3,69=1/1;
 5/5=2,38=5,53=1/2;
 7//1,2,3,16;
 1/5=1,6=70,8=5,11=1,18=20,26=3/3(-5);
 2/9=110/2;
 6/7=2,8=2,9=2,10=2,19=2,28=1/1;
 99/9=1/99;
 ------------------------
 2_iteration/TS-180-2.out
 ------------------------
 Symbolic Z-matrix:
 Charge =  0 Multiplicity = 1
 C                     0.78258  -0.74305   0.53111 
 C                     2.21034  -0.83527   0.41334 
 O                     2.91112  -1.68686   0.94218 
 C                     0.00199   0.10763  -0.24515 
 C                     0.69109   2.1681    1.558 
 H                     1.42196   2.96041   1.7127 
 H                    -0.24308   2.44105   2.04183 
 H                     1.06593   1.24451   2.00531 
 N                     0.47947   1.91693   0.1382 
 H                    -0.13877   2.58621  -0.30582 
 H                     1.36597   1.92575  -0.3543 
 C                    -1.49387   0.01371  -0.12064 
 C                    -2.09261  -1.16068  -0.58039 
 C                    -3.45917  -1.34499  -0.4852 
 C                    -4.25963  -0.35488   0.07111 
 C                    -3.6759    0.81368   0.52658 
 C                    -2.30156   0.99789   0.43058 
 H                    -1.47316  -1.936    -1.01304 
 H                    -3.90179  -2.26451  -0.8463 
 H                    -5.33008  -0.49626   0.14649 
 H                    -4.28608   1.59437   0.96225 
 H                    -1.88602   1.92079   0.80454 
 Cl                    0.37996   0.27764  -2.03793 
 C                     0.16099  -1.5785    1.62961 
 H                     0.87439  -1.70798   2.44378 
 H                    -0.73095  -1.10715   2.04111 
 H                    -0.12726  -2.57852   1.28919 
 O                     2.7753    0.16758  -0.30931 
 C                     4.18126   0.10415  -0.50133 
 H                     4.43645   0.96513  -1.11424 
 H                     4.70892   0.15593   0.4512 
 H                     4.46345  -0.81462  -1.01608 
 
 Add virtual bond connecting atoms N9         and C4         Dist= 3.61D+00.

 GradGradGradGradGradGradGradGradGradGradGradGradGradGradGradGradGradGrad
 Berny optimization.
 Initialization pass.
                           ----------------------------
                           !    Initial Parameters    !
                           ! (Angstroms and Degrees)  !
 --------------------------                            --------------------------
 ! Name  Definition              Value          Derivative Info.                !
 --------------------------------------------------------------------------------
 ! R1    R(1,2)                  1.4356         calculate D2E/DX2 analytically  !
 ! R2    R(1,4)                  1.3912         calculate D2E/DX2 analytically  !
 ! R3    R(1,24)                 1.5136         calculate D2E/DX2 analytically  !
 ! R4    R(2,3)                  1.2231         calculate D2E/DX2 analytically  !
 ! R5    R(2,28)                 1.3591         calculate D2E/DX2 analytically  !
 ! R6    R(4,9)                  1.9101         calculate D2E/DX2 analytically  !
 ! R7    R(4,12)                 1.504          calculate D2E/DX2 analytically  !
 ! R8    R(4,23)                 1.8401         calculate D2E/DX2 analytically  !
 ! R9    R(5,6)                  1.089          calculate D2E/DX2 analytically  !
 ! R10   R(5,7)                  1.0869         calculate D2E/DX2 analytically  !
 ! R11   R(5,8)                  1.0925         calculate D2E/DX2 analytically  !
 ! R12   R(5,9)                  1.4573         calculate D2E/DX2 analytically  !
 ! R13   R(9,10)                 1.0136         calculate D2E/DX2 analytically  !
 ! R14   R(9,11)                 1.0142         calculate D2E/DX2 analytically  !
 ! R15   R(12,13)                1.3961         calculate D2E/DX2 analytically  !
 ! R16   R(12,17)                1.3874         calculate D2E/DX2 analytically  !
 ! R17   R(13,14)                1.3822         calculate D2E/DX2 analytically  !
 ! R18   R(13,18)                1.0826         calculate D2E/DX2 analytically  !
 ! R19   R(14,15)                1.3894         calculate D2E/DX2 analytically  !
 ! R20   R(14,19)                1.0825         calculate D2E/DX2 analytically  !
 ! R21   R(15,16)                1.3834         calculate D2E/DX2 analytically  !
 ! R22   R(15,20)                1.0824         calculate D2E/DX2 analytically  !
 ! R23   R(16,17)                1.3899         calculate D2E/DX2 analytically  !
 ! R24   R(16,21)                1.0824         calculate D2E/DX2 analytically  !
 ! R25   R(17,22)                1.079          calculate D2E/DX2 analytically  !
 ! R26   R(24,25)                1.0902         calculate D2E/DX2 analytically  !
 ! R27   R(24,26)                1.0895         calculate D2E/DX2 analytically  !
 ! R28   R(24,27)                1.095          calculate D2E/DX2 analytically  !
 ! R29   R(28,29)                1.4204         calculate D2E/DX2 analytically  !
 ! R30   R(29,30)                1.0872         calculate D2E/DX2 analytically  !
 ! R31   R(29,31)                1.0901         calculate D2E/DX2 analytically  !
 ! R32   R(29,32)                1.0903         calculate D2E/DX2 analytically  !
 ! A1    A(2,1,4)              123.4717         calculate D2E/DX2 analytically  !
 ! A2    A(2,1,24)             115.6269         calculate D2E/DX2 analytically  !
 ! A3    A(4,1,24)             120.7983         calculate D2E/DX2 analytically  !
 ! A4    A(1,2,3)              125.3867         calculate D2E/DX2 analytically  !
 ! A5    A(1,2,28)             114.1827         calculate D2E/DX2 analytically  !
 ! A6    A(3,2,28)             120.3638         calculate D2E/DX2 analytically  !
 ! A7    A(1,4,9)              109.0836         calculate D2E/DX2 analytically  !
 ! A8    A(1,4,12)             118.273          calculate D2E/DX2 analytically  !
 ! A9    A(1,4,23)             119.0038         calculate D2E/DX2 analytically  !
 ! A10   A(9,4,12)             106.9277         calculate D2E/DX2 analytically  !
 ! A11   A(9,4,23)              93.2489         calculate D2E/DX2 analytically  !
 ! A12   A(12,4,23)            106.9019         calculate D2E/DX2 analytically  !
 ! A13   A(6,5,7)              109.3238         calculate D2E/DX2 analytically  !
 ! A14   A(6,5,8)              109.0649         calculate D2E/DX2 analytically  !
 ! A15   A(6,5,9)              111.1781         calculate D2E/DX2 analytically  !
 ! A16   A(7,5,8)              108.9617         calculate D2E/DX2 analytically  !
 ! A17   A(7,5,9)              110.6207         calculate D2E/DX2 analytically  !
 ! A18   A(8,5,9)              107.6387         calculate D2E/DX2 analytically  !
 ! A19   A(4,9,5)              113.2716         calculate D2E/DX2 analytically  !
 ! A20   A(4,9,10)             112.6486         calculate D2E/DX2 analytically  !
 ! A21   A(4,9,11)              97.4283         calculate D2E/DX2 analytically  !
 ! A22   A(5,9,10)             113.6766         calculate D2E/DX2 analytically  !
 ! A23   A(5,9,11)             110.1633         calculate D2E/DX2 analytically  !
 ! A24   A(10,9,11)            108.3429         calculate D2E/DX2 analytically  !
 ! A25   A(4,12,13)            116.861          calculate D2E/DX2 analytically  !
 ! A26   A(4,12,17)            124.5847         calculate D2E/DX2 analytically  !
 ! A27   A(13,12,17)           118.5482         calculate D2E/DX2 analytically  !
 ! A28   A(12,13,14)           120.8975         calculate D2E/DX2 analytically  !
 ! A29   A(12,13,18)           119.252          calculate D2E/DX2 analytically  !
 ! A30   A(14,13,18)           119.8501         calculate D2E/DX2 analytically  !
 ! A31   A(13,14,15)           120.1412         calculate D2E/DX2 analytically  !
 ! A32   A(13,14,19)           119.6399         calculate D2E/DX2 analytically  !
 ! A33   A(15,14,19)           120.2189         calculate D2E/DX2 analytically  !
 ! A34   A(14,15,16)           119.385          calculate D2E/DX2 analytically  !
 ! A35   A(14,15,20)           120.3023         calculate D2E/DX2 analytically  !
 ! A36   A(16,15,20)           120.3127         calculate D2E/DX2 analytically  !
 ! A37   A(15,16,17)           120.4265         calculate D2E/DX2 analytically  !
 ! A38   A(15,16,21)           120.2588         calculate D2E/DX2 analytically  !
 ! A39   A(17,16,21)           119.3147         calculate D2E/DX2 analytically  !
 ! A40   A(12,17,16)           120.6012         calculate D2E/DX2 analytically  !
 ! A41   A(12,17,22)           121.3488         calculate D2E/DX2 analytically  !
 ! A42   A(16,17,22)           118.0476         calculate D2E/DX2 analytically  !
 ! A43   A(1,24,25)            109.8044         calculate D2E/DX2 analytically  !
 ! A44   A(1,24,26)            111.8087         calculate D2E/DX2 analytically  !
 ! A45   A(1,24,27)            112.7406         calculate D2E/DX2 analytically  !
 ! A46   A(25,24,26)           107.7594         calculate D2E/DX2 analytically  !
 ! A47   A(25,24,27)           107.2152         calculate D2E/DX2 analytically  !
 ! A48   A(26,24,27)           107.2782         calculate D2E/DX2 analytically  !
 ! A49   A(2,28,29)            116.7685         calculate D2E/DX2 analytically  !
 ! A50   A(28,29,30)           105.853          calculate D2E/DX2 analytically  !
 ! A51   A(28,29,31)           111.0299         calculate D2E/DX2 analytically  !
 ! A52   A(28,29,32)           110.9552         calculate D2E/DX2 analytically  !
 ! A53   A(30,29,31)           109.9591         calculate D2E/DX2 analytically  !
 ! A54   A(30,29,32)           109.9026         calculate D2E/DX2 analytically  !
 ! A55   A(31,29,32)           109.1033         calculate D2E/DX2 analytically  !
 ! D1    D(4,1,2,3)           -169.6838         calculate D2E/DX2 analytically  !
 ! D2    D(4,1,2,28)            13.2956         calculate D2E/DX2 analytically  !
 ! D3    D(24,1,2,3)            13.9881         calculate D2E/DX2 analytically  !
 ! D4    D(24,1,2,28)         -163.0325         calculate D2E/DX2 analytically  !
 ! D5    D(2,1,4,9)            -63.5099         calculate D2E/DX2 analytically  !
 ! D6    D(2,1,4,12)           174.0849         calculate D2E/DX2 analytically  !
 ! D7    D(2,1,4,23)            41.582          calculate D2E/DX2 analytically  !
 ! D8    D(24,1,4,9)           112.6356         calculate D2E/DX2 analytically  !
 ! D9    D(24,1,4,12)           -9.7696         calculate D2E/DX2 analytically  !
 ! D10   D(24,1,4,23)         -142.2725         calculate D2E/DX2 analytically  !
 ! D11   D(2,1,24,25)           28.7534         calculate D2E/DX2 analytically  !
 ! D12   D(2,1,24,26)          148.31           calculate D2E/DX2 analytically  !
 ! D13   D(2,1,24,27)          -90.7199         calculate D2E/DX2 analytically  !
 ! D14   D(4,1,24,25)         -147.6809         calculate D2E/DX2 analytically  !
 ! D15   D(4,1,24,26)          -28.1243         calculate D2E/DX2 analytically  !
 ! D16   D(4,1,24,27)           92.8458         calculate D2E/DX2 analytically  !
 ! D17   D(1,2,28,29)         -177.8058         calculate D2E/DX2 analytically  !
 ! D18   D(3,2,28,29)            5.0091         calculate D2E/DX2 analytically  !
 ! D19   D(1,4,9,5)            -41.6333         calculate D2E/DX2 analytically  !
 ! D20   D(1,4,9,10)          -172.4105         calculate D2E/DX2 analytically  !
 ! D21   D(1,4,9,11)            74.1184         calculate D2E/DX2 analytically  !
 ! D22   D(12,4,9,5)            87.3587         calculate D2E/DX2 analytically  !
 ! D23   D(12,4,9,10)          -43.4184         calculate D2E/DX2 analytically  !
 ! D24   D(12,4,9,11)         -156.8895         calculate D2E/DX2 analytically  !
 ! D25   D(23,4,9,5)          -163.8775         calculate D2E/DX2 analytically  !
 ! D26   D(23,4,9,10)           65.3453         calculate D2E/DX2 analytically  !
 ! D27   D(23,4,9,11)          -48.1258         calculate D2E/DX2 analytically  !
 ! D28   D(1,4,12,13)          -67.2365         calculate D2E/DX2 analytically  !
 ! D29   D(1,4,12,17)          111.8489         calculate D2E/DX2 analytically  !
 ! D30   D(9,4,12,13)          169.277          calculate D2E/DX2 analytically  !
 ! D31   D(9,4,12,17)          -11.6376         calculate D2E/DX2 analytically  !
 ! D32   D(23,4,12,13)          70.3953         calculate D2E/DX2 analytically  !
 ! D33   D(23,4,12,17)        -110.5193         calculate D2E/DX2 analytically  !
 ! D34   D(6,5,9,4)            150.1195         calculate D2E/DX2 analytically  !
 ! D35   D(6,5,9,10)           -79.618          calculate D2E/DX2 analytically  !
 ! D36   D(6,5,9,11)            42.1899         calculate D2E/DX2 analytically  !
 ! D37   D(7,5,9,4)            -88.2154         calculate D2E/DX2 analytically  !
 ! D38   D(7,5,9,10)            42.0471         calculate D2E/DX2 analytically  !
 ! D39   D(7,5,9,11)           163.855          calculate D2E/DX2 analytically  !
 ! D40   D(8,5,9,4)             30.7284         calculate D2E/DX2 analytically  !
 ! D41   D(8,5,9,10)           160.991          calculate D2E/DX2 analytically  !
 ! D42   D(8,5,9,11)           -77.2012         calculate D2E/DX2 analytically  !
 ! D43   D(4,12,13,14)         178.8772         calculate D2E/DX2 analytically  !
 ! D44   D(4,12,13,18)          -0.8869         calculate D2E/DX2 analytically  !
 ! D45   D(17,12,13,14)         -0.2655         calculate D2E/DX2 analytically  !
 ! D46   D(17,12,13,18)        179.9703         calculate D2E/DX2 analytically  !
 ! D47   D(4,12,17,16)        -178.8174         calculate D2E/DX2 analytically  !
 ! D48   D(4,12,17,22)           0.6088         calculate D2E/DX2 analytically  !
 ! D49   D(13,12,17,16)          0.2537         calculate D2E/DX2 analytically  !
 ! D50   D(13,12,17,22)        179.6799         calculate D2E/DX2 analytically  !
 ! D51   D(12,13,14,15)          0.1264         calculate D2E/DX2 analytically  !
 ! D52   D(12,13,14,19)       -179.8727         calculate D2E/DX2 analytically  !
 ! D53   D(18,13,14,15)        179.8891         calculate D2E/DX2 analytically  !
 ! D54   D(18,13,14,19)         -0.1099         calculate D2E/DX2 analytically  !
 ! D55   D(13,14,15,16)          0.0286         calculate D2E/DX2 analytically  !
 ! D56   D(13,14,15,20)        179.9696         calculate D2E/DX2 analytically  !
 ! D57   D(19,14,15,16)       -179.9723         calculate D2E/DX2 analytically  !
 ! D58   D(19,14,15,20)         -0.0313         calculate D2E/DX2 analytically  !
 ! D59   D(14,15,16,17)         -0.0398         calculate D2E/DX2 analytically  !
 ! D60   D(14,15,16,21)        179.9881         calculate D2E/DX2 analytically  !
 ! D61   D(20,15,16,17)       -179.9807         calculate D2E/DX2 analytically  !
 ! D62   D(20,15,16,21)          0.0472         calculate D2E/DX2 analytically  !
 ! D63   D(15,16,17,12)         -0.1044         calculate D2E/DX2 analytically  !
 ! D64   D(15,16,17,22)       -179.5492         calculate D2E/DX2 analytically  !
 ! D65   D(21,16,17,12)        179.868          calculate D2E/DX2 analytically  !
 ! D66   D(21,16,17,22)          0.4232         calculate D2E/DX2 analytically  !
 ! D67   D(2,28,29,30)         178.6033         calculate D2E/DX2 analytically  !
 ! D68   D(2,28,29,31)         -62.0993         calculate D2E/DX2 analytically  !
 ! D69   D(2,28,29,32)          59.414          calculate D2E/DX2 analytically  !
 --------------------------------------------------------------------------------
 Trust Radius=5.00D-02 FncErr=1.00D-07 GrdErr=1.00D-06 EigMax=2.50D+02 EigMin=1.00D-04
 Number of steps in this run=     70 maximum allowed number of steps=    192.
 Search for a saddle point of order  1.
 GradGradGradGradGradGradGradGradGradGradGradGradGradGradGradGradGradGrad

                          Input orientation:                          
 ---------------------------------------------------------------------
 Center     Atomic      Atomic             Coordinates (Angstroms)
 Number     Number       Type             X           Y           Z
 ---------------------------------------------------------------------
      1          6           0        0.782580   -0.743050    0.531110
      2          6           0        2.210340   -0.835270    0.413340
      3          8           0        2.911120   -1.686860    0.942180
      4          6           0        0.001990    0.107630   -0.245150
      5          6           0        0.691090    2.168100    1.558000
      6          1           0        1.421960    2.960410    1.712700
      7          1           0       -0.243080    2.441050    2.041830
      8          1           0        1.065930    1.244510    2.005310
      9          7           0        0.479470    1.916930    0.138200
     10          1           0       -0.138770    2.586210   -0.305820
     11          1           0        1.365970    1.925750   -0.354300
     12          6           0       -1.493870    0.013710   -0.120640
     13          6           0       -2.092610   -1.160680   -0.580390
     14          6           0       -3.459170   -1.344990   -0.485200
     15          6           0       -4.259630   -0.354880    0.071110
     16          6           0       -3.675900    0.813680    0.526580
     17          6           0       -2.301560    0.997890    0.430580
     18          1           0       -1.473160   -1.936000   -1.013040
     19          1           0       -3.901790   -2.264510   -0.846300
     20          1           0       -5.330080   -0.496260    0.146490
     21          1           0       -4.286080    1.594370    0.962250
     22          1           0       -1.886020    1.920790    0.804540
     23         17           0        0.379960    0.277640   -2.037930
     24          6           0        0.160990   -1.578500    1.629610
     25          1           0        0.874390   -1.707980    2.443780
     26          1           0       -0.730950   -1.107150    2.041110
     27          1           0       -0.127260   -2.578520    1.289190
     28          8           0        2.775300    0.167580   -0.309310
     29          6           0        4.181260    0.104150   -0.501330
     30          1           0        4.436450    0.965130   -1.114240
     31          1           0        4.708920    0.155930    0.451200
     32          1           0        4.463450   -0.814620   -1.016080
 ---------------------------------------------------------------------
                    Distance matrix (angstroms):
                    1          2          3          4          5
     1  C    0.000000
     2  C    1.435574   0.000000
     3  O    2.364411   1.223098   0.000000
     4  C    1.391243   2.489875   3.618423   0.000000
     5  C    3.088311   3.555081   4.490934   2.823428   0.000000
     6  H    3.939616   4.088651   4.940488   3.740033   1.088971
     7  H    3.670524   4.405170   5.310165   3.276459   1.086861
     8  H    2.490772   2.858239   3.623245   2.736610   1.092524
     9  N    2.705873   3.262854   4.421155   1.910108   1.457293
    10  H    3.554337   4.212129   5.396152   2.483315   2.082621
    11  H    2.871722   2.987551   4.137548   2.275503   2.042324
    12  C    2.485898   3.837587   4.839986   1.503968   3.497610
    13  C    3.110718   4.428179   5.256653   2.471507   4.837610
    14  C    4.403142   5.762858   6.537192   3.761297   5.808711
    15  C    5.078007   6.496800   7.345243   4.298295   5.752034
    16  C    4.722444   6.113892   7.057922   3.823735   4.687097
    17  C    3.543007   4.870114   5.885716   2.560374   3.405352
    18  H    2.982598   4.100529   4.806960   2.634795   5.304513
    19  H    5.114237   6.402152   7.067396   4.607378   6.820794
    20  H    6.129719   7.552753   8.364689   5.380431   6.733919
    21  H    5.598279   6.957580   7.909903   4.696355   5.045424
    22  H    3.780507   4.952683   6.003885   2.820280   2.696361
    23  Cl   2.793542   3.255393   4.375738   1.840061   4.074476
    24  C    1.513623   2.496305   2.836815   2.526468   3.784593
    25  H    2.144254   2.582455   2.530517   3.359742   3.980226
    26  H    2.168742   3.372646   3.848166   2.690702   3.603173
    27  H    2.184364   3.044734   3.185471   3.096176   4.824143
    28  O    2.346590   1.359085   2.241344   2.774700   3.439892
    29  C    3.651672   2.367204   2.627678   4.187116   4.547748
    30  H    4.356125   3.245074   3.686264   4.599463   4.755599
    31  H    4.028734   2.688273   2.620882   4.758406   4.627828
    32  H    3.993460   2.668365   2.646755   4.620552   5.454650
                    6          7          8          9         10
     6  H    0.000000
     7  H    1.774942   0.000000
     8  H    1.776708   1.773851   0.000000
     9  N    2.110969   2.102519   2.069344   0.000000
    10  H    2.578823   2.354445   2.931345   1.013563   0.000000
    11  H    2.312173   2.931896   2.474242   1.014158   1.644020
    12  C    4.532796   3.483207   3.547831   2.753782   2.913476
    13  C    5.881653   4.823822   4.737843   4.074758   4.234627
    14  C    6.869692   5.573438   5.777948   5.151857   5.148938
    15  C    6.779855   5.275759   5.887340   5.255920   5.076768
    16  C    5.657164   4.090057   4.985700   4.316839   4.043024
    17  C    4.399991   2.985997   3.725666   2.943510   2.782572
    18  H    6.307631   5.477581   5.066859   4.470256   4.767719
    19  H    7.886101   6.623424   6.717376   6.135888   6.162948
    20  H    7.745426   6.172331   6.884362   6.290821   6.054412
    21  H    5.917006   4.269451   5.463917   4.847017   4.448812
    22  H    3.584452   2.121511   3.257793   2.457553   2.174527
    23  Cl   4.727604   4.659717   4.213453   2.726301   2.932368
    24  C    4.711545   4.060786   2.988219   3.813629   4.602234
    25  H    4.756908   4.315641   2.991010   4.314120   5.198736
    26  H    4.613883   3.581584   2.959791   3.772432   4.415843
    27  H    5.767078   5.077003   4.068426   4.679954   5.405426
    28  O    3.704045   4.450522   3.072326   2.920843   3.787029
    29  C    4.546855   5.612802   4.157998   4.171141   4.986131
    30  H    4.589105   5.834134   4.601092   4.258194   4.920781
    31  H    4.501177   5.681037   4.107510   4.592095   5.475348
    32  H    5.563070   6.488577   4.991188   4.966470   5.766328
                   11         12         13         14         15
    11  H    0.000000
    12  C    3.448069   0.000000
    13  C    4.641007   1.396084   0.000000
    14  C    5.830682   2.416893   1.382215   0.000000
    15  C    6.085197   2.796794   2.402029   1.389437   0.000000
    16  C    5.237662   2.412488   2.762297   2.393852   1.383375
    17  C    3.863643   1.387378   2.392727   2.769079   2.406916
    18  H    4.838152   2.144336   1.082601   2.138257   3.382268
    19  H    6.749047   3.393368   2.135950   1.082508   2.148576
    20  H    7.138208   3.879167   3.383936   2.149344   1.082374
    21  H    5.812812   3.386381   3.844652   3.379161   2.143456
    22  H    3.452300   2.155619   3.384696   3.847538   3.369068
    23  Cl   2.554035   2.693863   3.210419   4.447788   5.135555
    24  C    4.203290   2.887398   3.183926   4.199108   4.844383
    25  H    4.612472   3.892187   4.271795   5.243131   5.815377
    26  H    4.396993   2.551771   2.954530   3.725855   4.110765
    27  H    5.021876   3.251907   3.060752   3.971357   4.848172
    28  O    2.253752   4.276106   5.053148   6.417743   7.064554
    29  C    3.356442   5.688603   6.400585   7.776660   8.472722
    30  H    3.305775   6.087786   6.887139   8.250646   8.875206
    31  H    3.867352   6.230717   7.004174   8.357470   8.991123
    32  H    4.188313   6.080921   6.579628   7.958080   8.802583
                   16         17         18         19         20
    16  C    0.000000
    17  C    1.389950   0.000000
    18  H    3.844897   3.373128   0.000000
    19  H    3.378029   3.851547   2.456413   0.000000
    20  H    2.143997   3.388971   4.277054   2.480394   0.000000
    21  H    1.082407   2.139341   4.927251   4.278959   2.475103
    22  H    2.122881   1.079011   4.283559   4.930044   4.258722
    23  Cl   4.828463   3.715219   3.063438   5.120146   6.162400
    24  C    4.654130   3.760267   3.127595   4.806966   5.789882
    25  H    5.544327   4.632641   4.184804   5.826341   6.726162
    26  H    3.828331   3.080879   3.250492   4.441942   5.011464
    27  H    4.968042   4.272646   2.743090   4.348103   5.719345
    28  O    6.537135   5.197245   4.792671   7.126496   8.145282
    29  C    7.955815   6.610158   6.032953   8.430021   9.552264
    30  H    8.278010   6.912910   6.584093   8.945871   9.955411
    31  H    8.410917   7.060889   6.688668   9.038051  10.064776
    32  H    8.442759   7.151460   6.041593   8.491657   9.867429
                   21         22         23         24         25
    21  H    0.000000
    22  H    2.427285   0.000000
    23  Cl   5.701472   3.989266   0.000000
    24  C    5.503536   4.137151   4.116315   0.000000
    25  H    6.303245   4.845095   4.926751   1.090219   0.000000
    26  H    4.593593   3.468676   4.448633   1.089523   1.760754
    27  H    5.900482   4.855091   4.414142   1.094995   1.759040
    28  O    7.315441   5.103167   2.955993   3.693619   3.835452
    29  C    8.721162   6.466635   4.103793   4.851267   4.784650
    30  H    8.988342   6.675974   4.216747   5.681402   5.700289
    31  H    9.123613   6.836140   4.995045   5.008050   4.706183
    32  H    9.288234   7.149328   4.348804   5.108263   5.064590
                   26         27         28         29         30
    26  H    0.000000
    27  H    1.759192   0.000000
    28  O    4.409444   4.303617   0.000000
    29  C    5.662248   5.382009   1.420429   0.000000
    30  H    6.399422   6.257905   2.010825   1.087229   0.000000
    31  H    5.806494   5.618548   2.077835   1.090147   1.783156
    32  H    6.034383   5.431412   2.077039   1.090292   1.782659
                   31         32
    31  H    0.000000
    32  H    1.776270   0.000000
 Stoichiometry    C12H16ClNO2
 Framework group  C1[X(C12H16ClNO2)]
 Deg. of freedom    90
 Full point group                 C1      NOp   1
 Largest Abelian subgroup         C1      NOp   1
 Largest concise Abelian subgroup C1      NOp   1
                         Standard orientation:                         
 ---------------------------------------------------------------------
 Center     Atomic      Atomic             Coordinates (Angstroms)
 Number     Number       Type             X           Y           Z
 ---------------------------------------------------------------------
      1          6           0       -0.782581   -0.743050   -0.531111
      2          6           0       -2.210341   -0.835270   -0.413341
      3          8           0       -2.911121   -1.686859   -0.942181
      4          6           0       -0.001991    0.107630    0.245149
      5          6           0       -0.691090    2.168100   -1.558001
      6          1           0       -1.421960    2.960410   -1.712701
      7          1           0        0.243080    2.441050   -2.041831
      8          1           0       -1.065930    1.244510   -2.005311
      9          7           0       -0.479470    1.916930   -0.138201
     10          1           0        0.138770    2.586210    0.305819
     11          1           0       -1.365970    1.925750    0.354299
     12          6           0        1.493869    0.013710    0.120639
     13          6           0        2.092609   -1.160680    0.580389
     14          6           0        3.459169   -1.344991    0.485199
     15          6           0        4.259629   -0.354881   -0.071111
     16          6           0        3.675899    0.813679   -0.526581
     17          6           0        2.301560    0.997890   -0.430581
     18          1           0        1.473159   -1.936000    1.013039
     19          1           0        3.901789   -2.264511    0.846299
     20          1           0        5.330079   -0.496261   -0.146491
     21          1           0        4.286080    1.594369   -0.962251
     22          1           0        1.886020    1.920790   -0.804541
     23         17           0       -0.379961    0.277640    2.037929
     24          6           0       -0.160991   -1.578500   -1.629611
     25          1           0       -0.874391   -1.707980   -2.443781
     26          1           0        0.730949   -1.107150   -2.041111
     27          1           0        0.127259   -2.578520   -1.289191
     28          8           0       -2.775301    0.167581    0.309309
     29          6           0       -4.181261    0.104151    0.501329
     30          1           0       -4.436451    0.965131    1.114239
     31          1           0       -4.708921    0.155931   -0.451201
     32          1           0       -4.463451   -0.814619    1.016079
 ---------------------------------------------------------------------
 Rotational constants (GHZ):           0.8590352           0.3113174           0.3026893
 Standard basis: def2TZVP (5D, 7F)
 There are   678 symmetry adapted cartesian basis functions of A   symmetry.
 There are   598 symmetry adapted basis functions of A   symmetry.
   598 basis functions,   962 primitive gaussians,   678 cartesian basis functions
    64 alpha electrons       64 beta electrons
       nuclear repulsion energy      1282.2413393527 Hartrees.
 NAtoms=   32 NActive=   32 NUniq=   32 SFac= 1.00D+00 NAtFMM=   60 NAOKFM=F Big=F
 Integral buffers will be    131072 words long.
 Raffenetti 2 integral format.
 Two-electron integral symmetry is turned on.
 Nuclear repulsion after empirical dispersion term =     1282.2159032236 Hartrees.
 Force inversion solution in PCM.
 ------------------------------------------------------------------------------
 Polarizable Continuum Model (PCM)
 =================================
 Model                : PCM.
 Atomic radii         : UFF (Universal Force Field).
 Polarization charges : Total charges.
 Charge compensation  : None.
 Solution method      : Matrix inversion.
 Cavity type          : Scaled VdW (van der Waals Surface) (Alpha=1.100).
 Cavity algorithm     : GePol (No added spheres)
                        Default sphere list used, NSphG=   32.
                        Lebedev-Laikov grids with approx.  5.0 points / Ang**2.
                        Smoothing algorithm: York/Karplus (Gamma=1.0000).
                        Polarization charges: spherical gaussians, with
                                              point-specific exponents (IZeta= 3).
                        Self-potential: point-specific (ISelfS= 7).
                        Self-field    : sphere-specific E.n sum rule (ISelfD= 2).
 1st derivatives      : Analytical E(r).r(x)/FMM algorithm (CHGder, D1EAlg=3).
                        Cavity 1st derivative terms included.
 2nd derivatives      : Analytical E(r).r(xy)/FMM algorithm (CHGder, D2EAlg=3).
                        Cavity 2nd derivative terms included.
 Solvent              : Water, Eps=  78.355300 Eps(inf)=   1.777849
 ------------------------------------------------------------------------------
 One-electron integrals computed using PRISM.
   1 Symmetry operations used in ECPInt.
 ECPInt:  NShTT=   29403 NPrTT=   90090 LenC2=   27051 LenP2D=   60615.
 LDataN:  DoStor=T MaxTD1= 6 Len=  172
 NBasis=   598 RedAO= T EigKep=  6.86D-06  NBF=   598
 NBsUse=   598 1.00D-06 EigRej= -1.00D+00 NBFU=   598
 ExpMin= 9.52D-02 ExpMax= 6.95D+04 ExpMxC= 2.37D+03 IAcc=3 IRadAn=         5 AccDes= 0.00D+00
 Harris functional with IExCor= 4639 and IRadAn=       5 diagonalized for initial guess.
 HarFok:  IExCor= 4639 AccDes= 0.00D+00 IRadAn=         5 IDoV= 1 UseB2=F ITyADJ=14
 ICtDFT=  3500011 ScaDFX=  1.000000  1.000000  1.000000  1.000000
 FoFCou: FMM=F IPFlag=           0 FMFlag=      100000 FMFlg1=           0
         NFxFlg=           0 DoJE=T BraDBF=F KetDBF=T FulRan=T
         wScrn=  0.000000 ICntrl=       500 IOpCl=  0 I1Cent=   200000004 NGrid=           0
         NMat0=    1 NMatS0=      1 NMatT0=    0 NMatD0=    1 NMtDS0=    0 NMtDT0=    0
 Petite list used in FoFCou.
 Requested convergence on RMS density matrix=1.00D-08 within 128 cycles.
 Requested convergence on MAX density matrix=1.00D-06.
 Requested convergence on             energy=1.00D-06.
 No special actions if energy rises.
 Inv3:  Mode=1 IEnd=    15952908.
 Iteration    1 A*A^-1 deviation from unit magnitude is 5.55D-15 for   2284.
 Iteration    1 A*A^-1 deviation from orthogonality  is 2.55D-15 for   2284    930.
 Iteration    1 A^-1*A deviation from unit magnitude is 5.55D-15 for   2284.
 Iteration    1 A^-1*A deviation from orthogonality  is 7.92D-15 for   1697   1674.
 Error on total polarization charges =  0.01496
 SCF Done:  E(RwB97XD) =  -1132.31505166     A.U. after   15 cycles
            NFock= 15  Conv=0.42D-08     -V/T= 2.0034
 DoSCS=F DFT=T ScalE2(SS,OS)=  1.000000  1.000000
 Range of M.O.s used for correlation:     1   598
 NBasis=   598 NAE=    64 NBE=    64 NFC=     0 NFV=     0
 NROrb=    598 NOA=    64 NOB=    64 NVA=   534 NVB=   534

 **** Warning!!: The largest alpha MO coefficient is  0.50891799D+02

   1 Symmetry operations used in ECPInt.
 ECPInt:  NShTT=   29403 NPrTT=   90090 LenC2=   27051 LenP2D=   60615.
 LDataN:  DoStor=T MaxTD1= 7 Len=  274
 Symmetrizing basis deriv contribution to polar:
 IMax=3 JMax=2 DiffMx= 0.00D+00
 G2DrvN: will do    33 centers at a time, making    1 passes.
 Calling FoFCou, ICntrl=  3107 FMM=F I1Cent=   0 AccDes= 0.00D+00.
 NEqPCM:  Using equilibrium solvation (IEInf=0, Eps=  78.3553, EpsInf=   1.7778)
 G2PCM: DoFxE=T DoFxN=T DoGrad=T DoDP/DQ/DG/TGxP=FFFF NFrqRd=   0 IEInf=0 SqF1=F DoCFld=F IF1Alg=4.
 End of G2Drv F.D. properties file   721 does not exist.
 End of G2Drv F.D. properties file   722 does not exist.
 End of G2Drv F.D. properties file   788 does not exist.
          IDoAtm=11111111111111111111111111111111
 NEqPCM:  Using equilibrium solvation (IEInf=0, Eps=  78.3553, EpsInf=   1.7778)
          Differentiating once with respect to nuclear coordinates.
 CalDSu exits because no D1Ps are significant.
          There are    99 degrees of freedom in the 1st order CPHF.  IDoFFX=6 NUNeed=     0.
     93 vectors produced by pass  0 Test12= 3.45D-14 1.01D-09 XBig12= 1.17D-01 1.43D-01.
 AX will form    93 AO Fock derivatives at one time.
     93 vectors produced by pass  1 Test12= 3.45D-14 1.01D-09 XBig12= 1.99D-02 3.14D-02.
     93 vectors produced by pass  2 Test12= 3.45D-14 1.01D-09 XBig12= 6.43D-04 4.07D-03.
     93 vectors produced by pass  3 Test12= 3.45D-14 1.01D-09 XBig12= 8.71D-06 3.09D-04.
     93 vectors produced by pass  4 Test12= 3.45D-14 1.01D-09 XBig12= 8.92D-08 3.50D-05.
     93 vectors produced by pass  5 Test12= 3.45D-14 1.01D-09 XBig12= 8.62D-10 2.81D-06.
     93 vectors produced by pass  6 Test12= 3.45D-14 1.01D-09 XBig12= 6.15D-12 2.11D-07.
     42 vectors produced by pass  7 Test12= 3.45D-14 1.01D-09 XBig12= 3.85D-14 1.87D-08.
      8 vectors produced by pass  8 Test12= 3.45D-14 1.01D-09 XBig12= 3.27D-15 5.85D-09.
      6 vectors produced by pass  9 Test12= 3.45D-14 1.01D-09 XBig12= 2.34D-15 4.28D-09.
      5 vectors produced by pass 10 Test12= 3.45D-14 1.01D-09 XBig12= 2.24D-15 5.81D-09.
      4 vectors produced by pass 11 Test12= 3.45D-14 1.01D-09 XBig12= 2.68D-15 4.35D-09.
      2 vectors produced by pass 12 Test12= 3.45D-14 1.01D-09 XBig12= 9.79D-16 3.20D-09.
 InvSVY:  IOpt=1 It=  1 EMax= 7.77D-16
 Solved reduced A of dimension   718 with    99 vectors.
 End of Minotr F.D. properties file   721 does not exist.
 End of Minotr F.D. properties file   722 does not exist.
 End of Minotr F.D. properties file   788 does not exist.

 **********************************************************************

            Population analysis using the SCF density.

 **********************************************************************

 Orbital symmetries:
       Occupied  (A) (A) (A) (A) (A) (A) (A) (A) (A) (A) (A) (A)
                 (A) (A) (A) (A) (A) (A) (A) (A) (A) (A) (A) (A)
                 (A) (A) (A) (A) (A) (A) (A) (A) (A) (A) (A) (A)
                 (A) (A) (A) (A) (A) (A) (A) (A) (A) (A) (A) (A)
                 (A) (A) (A) (A) (A) (A) (A) (A) (A) (A) (A) (A)
                 (A) (A) (A) (A)
       Virtual   (A) (A) (A) (A) (A) (A) (A) (A) (A) (A) (A) (A)
                 (A) (A) (A) (A) (A) (A) (A) (A) (A) (A) (A) (A)
                 (A) (A) (A) (A) (A) (A) (A) (A) (A) (A) (A) (A)
                 (A) (A) (A) (A) (A) (A) (A) (A) (A) (A) (A) (A)
                 (A) (A) (A) (A) (A) (A) (A) (A) (A) (A) (A) (A)
                 (A) (A) (A) (A) (A) (A) (A) (A) (A) (A) (A) (A)
                 (A) (A) (A) (A) (A) (A) (A) (A) (A) (A) (A) (A)
                 (A) (A) (A) (A) (A) (A) (A) (A) (A) (A) (A) (A)
                 (A) (A) (A) (A) (A) (A) (A) (A) (A) (A) (A) (A)
                 (A) (A) (A) (A) (A) (A) (A) (A) (A) (A) (A) (A)
                 (A) (A) (A) (A) (A) (A) (A) (A) (A) (A) (A) (A)
                 (A) (A) (A) (A) (A) (A) (A) (A) (A) (A) (A) (A)
                 (A) (A) (A) (A) (A) (A) (A) (A) (A) (A) (A) (A)
                 (A) (A) (A) (A) (A) (A) (A) (A) (A) (A) (A) (A)
                 (A) (A) (A) (A) (A) (A) (A) (A) (A) (A) (A) (A)
                 (A) (A) (A) (A) (A) (A) (A) (A) (A) (A) (A) (A)
                 (A) (A) (A) (A) (A) (A) (A) (A) (A) (A) (A) (A)
                 (A) (A) (A) (A) (A) (A) (A) (A) (A) (A) (A) (A)
                 (A) (A) (A) (A) (A) (A) (A) (A) (A) (A) (A) (A)
                 (A) (A) (A) (A) (A) (A) (A) (A) (A) (A) (A) (A)
                 (A) (A) (A) (A) (A) (A) (A) (A) (A) (A) (A) (A)
                 (A) (A) (A) (A) (A) (A) (A) (A) (A) (A) (A) (A)
                 (A) (A) (A) (A) (A) (A) (A) (A) (A) (A) (A) (A)
                 (A) (A) (A) (A) (A) (A) (A) (A) (A) (A) (A) (A)
                 (A) (A) (A) (A) (A) (A) (A) (A) (A) (A) (A) (A)
                 (A) (A) (A) (A) (A) (A) (A) (A) (A) (A) (A) (A)
                 (A) (A) (A) (A) (A) (A) (A) (A) (A) (A) (A) (A)
                 (A) (A) (A) (A) (A) (A) (A) (A) (A) (A) (A) (A)
                 (A) (A) (A) (A) (A) (A) (A) (A) (A) (A) (A) (A)
                 (A) (A) (A) (A) (A) (A) (A) (A) (A) (A) (A) (A)
                 (A) (A) (A) (A) (A) (A) (A) (A) (A) (A) (A) (A)
                 (A) (A) (A) (A) (A) (A) (A) (A) (A) (A) (A) (A)
                 (A) (A) (A) (A) (A) (A) (A) (A) (A) (A) (A) (A)
                 (A) (A) (A) (A) (A) (A) (A) (A) (A) (A) (A) (A)
                 (A) (A) (A) (A) (A) (A) (A) (A) (A) (A) (A) (A)
                 (A) (A) (A) (A) (A) (A) (A) (A) (A) (A) (A) (A)
                 (A) (A) (A) (A) (A) (A) (A) (A) (A) (A) (A) (A)
                 (A) (A) (A) (A) (A) (A) (A) (A) (A) (A) (A) (A)
                 (A) (A) (A) (A) (A) (A) (A) (A) (A) (A) (A) (A)
                 (A) (A) (A) (A) (A) (A) (A) (A) (A) (A) (A) (A)
                 (A) (A) (A) (A) (A) (A) (A) (A) (A) (A) (A) (A)
                 (A) (A) (A) (A) (A) (A) (A) (A) (A) (A) (A) (A)
                 (A) (A) (A) (A) (A) (A) (A) (A) (A) (A) (A) (A)
                 (A) (A) (A) (A) (A) (A) (A) (A) (A) (A) (A) (A)
                 (A) (A) (A) (A) (A) (A)
 The electronic state is 1-A.
 Alpha  occ. eigenvalues -- -101.68682 -19.28338 -19.21222 -14.49053 -10.40217
 Alpha  occ. eigenvalues --  -10.39430 -10.32692 -10.31799 -10.31467 -10.29971
 Alpha  occ. eigenvalues --  -10.29613 -10.29531 -10.29477 -10.29401 -10.26961
 Alpha  occ. eigenvalues --  -10.26492  -9.57287  -7.31900  -7.31086  -7.31045
 Alpha  occ. eigenvalues --   -1.19550  -1.09847  -1.04843  -0.98493  -0.95151
 Alpha  occ. eigenvalues --   -0.88768  -0.86249  -0.85764  -0.81662  -0.79276
 Alpha  occ. eigenvalues --   -0.77066  -0.72630  -0.71263  -0.67869  -0.65075
 Alpha  occ. eigenvalues --   -0.63025  -0.61001  -0.58568  -0.57973  -0.56814
 Alpha  occ. eigenvalues --   -0.56503  -0.55417  -0.54840  -0.53095  -0.51904
 Alpha  occ. eigenvalues --   -0.51474  -0.51368  -0.49349  -0.48286  -0.47252
 Alpha  occ. eigenvalues --   -0.46492  -0.45735  -0.45577  -0.45205  -0.43892
 Alpha  occ. eigenvalues --   -0.43505  -0.42981  -0.39685  -0.38658  -0.37560
 Alpha  occ. eigenvalues --   -0.35585  -0.34388  -0.33322  -0.27262
 Alpha virt. eigenvalues --    0.03190   0.04609   0.05331   0.08800   0.10477
 Alpha virt. eigenvalues --    0.12746   0.13097   0.14273   0.14914   0.15683
 Alpha virt. eigenvalues --    0.16135   0.16972   0.17188   0.18268   0.18437
 Alpha virt. eigenvalues --    0.19412   0.20070   0.20396   0.20977   0.21810
 Alpha virt. eigenvalues --    0.22075   0.22309   0.23680   0.24112   0.24488
 Alpha virt. eigenvalues --    0.25171   0.25886   0.26138   0.26774   0.27185
 Alpha virt. eigenvalues --    0.28069   0.28883   0.29322   0.29727   0.31484
 Alpha virt. eigenvalues --    0.31798   0.31840   0.32741   0.33535   0.33773
 Alpha virt. eigenvalues --    0.34828   0.35490   0.36372   0.36817   0.37560
 Alpha virt. eigenvalues --    0.38210   0.38826   0.39017   0.39555   0.40601
 Alpha virt. eigenvalues --    0.41235   0.41847   0.42308   0.42841   0.43483
 Alpha virt. eigenvalues --    0.44026   0.44754   0.45286   0.46146   0.46334
 Alpha virt. eigenvalues --    0.46984   0.47407   0.47971   0.48624   0.48793
 Alpha virt. eigenvalues --    0.48939   0.49642   0.50137   0.50349   0.51223
 Alpha virt. eigenvalues --    0.51864   0.52587   0.52917   0.53342   0.53634
 Alpha virt. eigenvalues --    0.54197   0.54414   0.55001   0.55496   0.56263
 Alpha virt. eigenvalues --    0.56831   0.57115   0.57841   0.58203   0.58709
 Alpha virt. eigenvalues --    0.59202   0.60076   0.60752   0.61364   0.62679
 Alpha virt. eigenvalues --    0.64418   0.64615   0.66046   0.66601   0.67244
 Alpha virt. eigenvalues --    0.68063   0.68277   0.68926   0.69707   0.72190
 Alpha virt. eigenvalues --    0.72598   0.73261   0.74677   0.74964   0.76181
 Alpha virt. eigenvalues --    0.76812   0.77302   0.77868   0.78823   0.80025
 Alpha virt. eigenvalues --    0.80959   0.81938   0.82368   0.83277   0.83598
 Alpha virt. eigenvalues --    0.84888   0.85186   0.87244   0.88375   0.89584
 Alpha virt. eigenvalues --    0.90634   0.91359   0.92235   0.92735   0.93829
 Alpha virt. eigenvalues --    0.95124   0.95895   0.96689   0.97772   0.98651
 Alpha virt. eigenvalues --    0.99234   1.00266   1.00453   1.02238   1.02862
 Alpha virt. eigenvalues --    1.03559   1.04566   1.05074   1.07326   1.08787
 Alpha virt. eigenvalues --    1.09410   1.10418   1.11051   1.11282   1.13281
 Alpha virt. eigenvalues --    1.14354   1.14980   1.16184   1.17600   1.17946
 Alpha virt. eigenvalues --    1.19602   1.20784   1.21557   1.23108   1.24632
 Alpha virt. eigenvalues --    1.24873   1.27817   1.29350   1.30010   1.30659
 Alpha virt. eigenvalues --    1.31603   1.32894   1.33843   1.34609   1.35015
 Alpha virt. eigenvalues --    1.35970   1.37206   1.38683   1.39089   1.39915
 Alpha virt. eigenvalues --    1.42094   1.42634   1.43074   1.46507   1.48748
 Alpha virt. eigenvalues --    1.50027   1.51711   1.53069   1.53851   1.54626
 Alpha virt. eigenvalues --    1.55855   1.56642   1.56980   1.57972   1.59389
 Alpha virt. eigenvalues --    1.59996   1.60019   1.60746   1.61938   1.62939
 Alpha virt. eigenvalues --    1.63427   1.63947   1.65418   1.66296   1.67078
 Alpha virt. eigenvalues --    1.67493   1.67651   1.68109   1.69618   1.70705
 Alpha virt. eigenvalues --    1.70963   1.71481   1.72765   1.72875   1.74101
 Alpha virt. eigenvalues --    1.74891   1.76940   1.77327   1.78878   1.79156
 Alpha virt. eigenvalues --    1.80122   1.81226   1.82082   1.83972   1.84090
 Alpha virt. eigenvalues --    1.85354   1.87232   1.87702   1.89597   1.90986
 Alpha virt. eigenvalues --    1.92578   1.94033   1.94370   1.95105   1.96717
 Alpha virt. eigenvalues --    1.98480   1.99299   2.00159   2.00610   2.00766
 Alpha virt. eigenvalues --    2.01454   2.03191   2.04525   2.05275   2.06100
 Alpha virt. eigenvalues --    2.07471   2.08779   2.09294   2.10551   2.10857
 Alpha virt. eigenvalues --    2.12548   2.12814   2.13655   2.14392   2.15140
 Alpha virt. eigenvalues --    2.16321   2.17809   2.17895   2.19053   2.20305
 Alpha virt. eigenvalues --    2.21748   2.22371   2.23540   2.23624   2.24414
 Alpha virt. eigenvalues --    2.25600   2.27254   2.27910   2.28660   2.30659
 Alpha virt. eigenvalues --    2.31279   2.32739   2.33133   2.34618   2.35877
 Alpha virt. eigenvalues --    2.36871   2.37397   2.37859   2.39522   2.40307
 Alpha virt. eigenvalues --    2.42721   2.43703   2.44428   2.44694   2.45856
 Alpha virt. eigenvalues --    2.47492   2.48155   2.49115   2.50984   2.51542
 Alpha virt. eigenvalues --    2.52216   2.52663   2.53839   2.54928   2.57251
 Alpha virt. eigenvalues --    2.58426   2.58757   2.60064   2.61184   2.62190
 Alpha virt. eigenvalues --    2.62951   2.63541   2.64596   2.65355   2.67181
 Alpha virt. eigenvalues --    2.68119   2.68408   2.69676   2.70996   2.71215
 Alpha virt. eigenvalues --    2.71505   2.71996   2.73425   2.75425   2.75935
 Alpha virt. eigenvalues --    2.77468   2.78085   2.78250   2.79045   2.80988
 Alpha virt. eigenvalues --    2.81963   2.82733   2.84282   2.85283   2.86224
 Alpha virt. eigenvalues --    2.86686   2.87141   2.87304   2.88999   2.90089
 Alpha virt. eigenvalues --    2.91635   2.91973   2.93431   2.94687   2.95081
 Alpha virt. eigenvalues --    2.95925   2.96514   2.97016   2.98587   2.99241
 Alpha virt. eigenvalues --    3.01062   3.01161   3.03047   3.03960   3.04925
 Alpha virt. eigenvalues --    3.06555   3.08730   3.10423   3.11857   3.13409
 Alpha virt. eigenvalues --    3.14212   3.14833   3.15457   3.17367   3.18153
 Alpha virt. eigenvalues --    3.18613   3.19822   3.20041   3.21071   3.21562
 Alpha virt. eigenvalues --    3.23274   3.23909   3.24982   3.25775   3.26287
 Alpha virt. eigenvalues --    3.27590   3.28804   3.30087   3.31183   3.31705
 Alpha virt. eigenvalues --    3.32440   3.33309   3.34225   3.34941   3.35659
 Alpha virt. eigenvalues --    3.36635   3.37485   3.38564   3.39425   3.39852
 Alpha virt. eigenvalues --    3.40654   3.41090   3.42916   3.43038   3.43650
 Alpha virt. eigenvalues --    3.44442   3.45790   3.46797   3.48272   3.48551
 Alpha virt. eigenvalues --    3.49320   3.50025   3.50538   3.51199   3.52217
 Alpha virt. eigenvalues --    3.53757   3.54153   3.54984   3.56110   3.56962
 Alpha virt. eigenvalues --    3.57910   3.58605   3.59925   3.60321   3.61995
 Alpha virt. eigenvalues --    3.62666   3.63568   3.65221   3.65577   3.67495
 Alpha virt. eigenvalues --    3.67956   3.68226   3.70164   3.73588   3.74306
 Alpha virt. eigenvalues --    3.75151   3.78133   3.78338   3.79038   3.80700
 Alpha virt. eigenvalues --    3.82911   3.83459   3.84576   3.86618   3.89621
 Alpha virt. eigenvalues --    3.91375   3.93772   3.96067   3.96751   3.98673
 Alpha virt. eigenvalues --    4.02888   4.03734   4.05126   4.06323   4.09371
 Alpha virt. eigenvalues --    4.11345   4.13445   4.15200   4.16856   4.18327
 Alpha virt. eigenvalues --    4.20449   4.22786   4.25520   4.26305   4.27936
 Alpha virt. eigenvalues --    4.28106   4.28705   4.29930   4.30403   4.31670
 Alpha virt. eigenvalues --    4.32017   4.34285   4.35570   4.39540   4.40857
 Alpha virt. eigenvalues --    4.41501   4.43399   4.45259   4.47001   4.47649
 Alpha virt. eigenvalues --    4.49615   4.50839   4.51438   4.54140   4.56662
 Alpha virt. eigenvalues --    4.61481   4.61701   4.67631   4.69115   4.69628
 Alpha virt. eigenvalues --    4.74717   4.76136   4.77902   4.78070   4.82222
 Alpha virt. eigenvalues --    4.84062   4.86940   4.94793   4.97347   4.98232
 Alpha virt. eigenvalues --    4.99371   5.03169   5.06409   5.09724   5.11928
 Alpha virt. eigenvalues --    5.17027   5.19353   5.22705   5.24670   5.26822
 Alpha virt. eigenvalues --    5.28411   5.33127   5.33272   5.36089   5.38064
 Alpha virt. eigenvalues --    5.40773   5.43188   5.51009   5.51559   5.53822
 Alpha virt. eigenvalues --    5.56428   5.60697   5.64015   5.65019   5.75692
 Alpha virt. eigenvalues --    5.78493   5.81619   5.91682   5.96224   6.05431
 Alpha virt. eigenvalues --    6.22049   6.28532   6.39598   6.46862   6.49064
 Alpha virt. eigenvalues --    6.66465   6.78144   6.85423   6.89019   6.99351
 Alpha virt. eigenvalues --    7.04789   7.16200   7.23189   7.41297   7.52470
 Alpha virt. eigenvalues --   10.91326  11.01399  11.48201  22.24213  22.48726
 Alpha virt. eigenvalues --   22.51853  22.58706  22.65968  22.74474  22.79396
 Alpha virt. eigenvalues --   22.88952  22.95539  23.06404  23.36820  23.54370
 Alpha virt. eigenvalues --   25.79877  32.24601  44.07911  44.31217
          Condensed to atoms (all electrons):
               1          2          3          4          5          6
     1  C    6.217175   0.225996  -0.154181   0.332335  -0.015814  -0.001903
     2  C    0.225996   4.485013   0.671726  -0.026047  -0.007686   0.000923
     3  O   -0.154181   0.671726   8.040183   0.009733  -0.000335   0.000036
     4  C    0.332335  -0.026047   0.009733   5.263509  -0.033190   0.003026
     5  C   -0.015814  -0.007686  -0.000335  -0.033190   4.882429   0.408906
     6  H   -0.001903   0.000923   0.000036   0.003026   0.408906   0.497733
     7  H   -0.003654   0.000385  -0.000013  -0.002005   0.417833  -0.015682
     8  H    0.032300  -0.008095   0.000104  -0.000258   0.410323  -0.023147
     9  N   -0.074390   0.016745  -0.000030   0.017217   0.245843  -0.020123
    10  H    0.010657  -0.000729   0.000003  -0.005216  -0.023426  -0.001845
    11  H   -0.018383  -0.000100   0.000219   0.007838  -0.016400  -0.008143
    12  C   -0.081679   0.006097  -0.000609   0.174983   0.014265  -0.000197
    13  C    0.027569   0.003290  -0.000027  -0.125065  -0.001111   0.000065
    14  C   -0.000335  -0.000527  -0.000004   0.002601   0.000204  -0.000004
    15  C    0.000679   0.000051   0.000000  -0.005170  -0.000136   0.000002
    16  C   -0.001215   0.000060   0.000000   0.006992   0.000427   0.000007
    17  C   -0.005340  -0.001559   0.000012  -0.114238  -0.012403   0.000618
    18  H   -0.000090   0.001076   0.000046   0.003902  -0.000040   0.000001
    19  H   -0.000085  -0.000007  -0.000000  -0.000260  -0.000000  -0.000000
    20  H    0.000004   0.000000  -0.000000   0.000081  -0.000000   0.000000
    21  H    0.000001   0.000001   0.000000  -0.000288  -0.000000   0.000000
    22  H    0.001259  -0.000183  -0.000000  -0.012810  -0.000430  -0.000230
    23  Cl  -0.045078  -0.014531   0.000062   0.248075   0.003940  -0.000358
    24  C    0.242486  -0.065207   0.007583  -0.078210   0.003502   0.000054
    25  H   -0.054543  -0.002618   0.009683   0.007409   0.000681  -0.000001
    26  H   -0.068137   0.006474   0.001857  -0.005959   0.000889   0.000010
    27  H   -0.046947  -0.004420   0.000675  -0.006683  -0.000175  -0.000002
    28  O   -0.190367   0.365200  -0.100882   0.027696   0.007222  -0.000484
    29  C    0.009537  -0.048067   0.001603  -0.003729  -0.000617   0.000070
    30  H    0.003492   0.005864   0.002390  -0.001000   0.000044   0.000012
    31  H   -0.004473  -0.007438   0.007315   0.001203  -0.000449   0.000062
    32  H    0.000175  -0.009279   0.005185  -0.000799   0.000125  -0.000008
               7          8          9         10         11         12
     1  C   -0.003654   0.032300  -0.074390   0.010657  -0.018383  -0.081679
     2  C    0.000385  -0.008095   0.016745  -0.000729  -0.000100   0.006097
     3  O   -0.000013   0.000104  -0.000030   0.000003   0.000219  -0.000609
     4  C   -0.002005  -0.000258   0.017217  -0.005216   0.007838   0.174983
     5  C    0.417833   0.410323   0.245843  -0.023426  -0.016400   0.014265
     6  H   -0.015682  -0.023147  -0.020123  -0.001845  -0.008143  -0.000197
     7  H    0.506020  -0.023212  -0.031328  -0.007690   0.004544   0.002246
     8  H   -0.023212   0.515724  -0.052526   0.005842  -0.000543  -0.002808
     9  N   -0.031328  -0.052526   6.597924   0.346501   0.350133  -0.025674
    10  H   -0.007690   0.005842   0.346501   0.403291  -0.016388  -0.005030
    11  H    0.004544  -0.000543   0.350133  -0.016388   0.397700   0.004044
    12  C    0.002246  -0.002808  -0.025674  -0.005030   0.004044   5.518341
    13  C   -0.000202  -0.000381   0.014670  -0.000137  -0.000702   0.308226
    14  C    0.000015   0.000055  -0.001161  -0.000018   0.000033   0.052587
    15  C   -0.000012  -0.000000   0.000258   0.000088  -0.000008  -0.111175
    16  C    0.000686  -0.000205   0.001778  -0.001183   0.000033   0.006578
    17  C   -0.003832  -0.000836   0.014097  -0.000898   0.000138   0.206343
    18  H    0.000003  -0.000031   0.000678  -0.000036  -0.000030  -0.090432
    19  H    0.000000   0.000000  -0.000001  -0.000000  -0.000000   0.016434
    20  H   -0.000000  -0.000000   0.000000   0.000001  -0.000000  -0.004092
    21  H    0.000018  -0.000002   0.000012  -0.000024  -0.000001   0.014768
    22  H    0.004684  -0.000121   0.002454  -0.000374   0.000437  -0.086228
    23  Cl  -0.000008   0.001324  -0.075239   0.005737   0.002820  -0.040556
    24  C   -0.000316  -0.003403   0.009622  -0.000438  -0.000739  -0.025097
    25  H   -0.000046  -0.000396   0.000896  -0.000013   0.000007  -0.001844
    26  H   -0.000189  -0.001064   0.001055  -0.000023  -0.000062  -0.006409
    27  H    0.000010   0.000556  -0.001049   0.000025   0.000012   0.003087
    28  O    0.000157  -0.002647  -0.006402   0.000359   0.011810   0.003145
    29  C    0.000003  -0.000076   0.000468  -0.000038  -0.000889   0.000056
    30  H   -0.000001  -0.000021   0.000183  -0.000016  -0.000506  -0.000014
    31  H   -0.000008   0.000190  -0.000084   0.000002   0.000085   0.000012
    32  H    0.000001  -0.000029   0.000011   0.000001   0.000188   0.000026
              13         14         15         16         17         18
     1  C    0.027569  -0.000335   0.000679  -0.001215  -0.005340  -0.000090
     2  C    0.003290  -0.000527   0.000051   0.000060  -0.001559   0.001076
     3  O   -0.000027  -0.000004   0.000000   0.000000   0.000012   0.000046
     4  C   -0.125065   0.002601  -0.005170   0.006992  -0.114238   0.003902
     5  C   -0.001111   0.000204  -0.000136   0.000427  -0.012403  -0.000040
     6  H    0.000065  -0.000004   0.000002   0.000007   0.000618   0.000001
     7  H   -0.000202   0.000015  -0.000012   0.000686  -0.003832   0.000003
     8  H   -0.000381   0.000055  -0.000000  -0.000205  -0.000836  -0.000031
     9  N    0.014670  -0.001161   0.000258   0.001778   0.014097   0.000678
    10  H   -0.000137  -0.000018   0.000088  -0.001183  -0.000898  -0.000036
    11  H   -0.000702   0.000033  -0.000008   0.000033   0.000138  -0.000030
    12  C    0.308226   0.052587  -0.111175   0.006578   0.206343  -0.090432
    13  C    5.243466   0.394174   0.042348  -0.066908   0.054488   0.465887
    14  C    0.394174   5.010191   0.386455   0.022805  -0.103403  -0.050010
    15  C    0.042348   0.386455   5.003806   0.417534   0.049416   0.011739
    16  C   -0.066908   0.022805   0.417534   4.964686   0.420255  -0.004675
    17  C    0.054488  -0.103403   0.049416   0.420255   5.244794   0.015363
    18  H    0.465887  -0.050010   0.011739  -0.004675   0.015363   0.486485
    19  H   -0.063748   0.460477  -0.060249   0.012072  -0.004711  -0.007143
    20  H    0.011984  -0.059184   0.456611  -0.059187   0.013247  -0.000033
    21  H   -0.003569   0.010842  -0.055689   0.451091  -0.055227   0.000008
    22  H    0.002885  -0.000911   0.006087  -0.000529   0.439362   0.000043
    23  Cl   0.017920  -0.001685   0.000832  -0.001576  -0.000258   0.008766
    24  C   -0.005957  -0.000126   0.000646   0.000024   0.003479  -0.000502
    25  H    0.000927  -0.000056  -0.000023   0.000024   0.000203   0.000072
    26  H   -0.005841  -0.001186   0.000736   0.000337   0.000968   0.000553
    27  H    0.002393   0.000082   0.000242  -0.000265   0.000013  -0.001195
    28  O    0.000124  -0.000007   0.000001  -0.000003   0.000142   0.000024
    29  C   -0.000002  -0.000000   0.000000   0.000000  -0.000002   0.000002
    30  H   -0.000001   0.000000  -0.000000   0.000000  -0.000000  -0.000001
    31  H    0.000001  -0.000000  -0.000000   0.000000  -0.000002  -0.000000
    32  H   -0.000003  -0.000000   0.000000  -0.000000   0.000002   0.000002
              19         20         21         22         23         24
     1  C   -0.000085   0.000004   0.000001   0.001259  -0.045078   0.242486
     2  C   -0.000007   0.000000   0.000001  -0.000183  -0.014531  -0.065207
     3  O   -0.000000  -0.000000   0.000000  -0.000000   0.000062   0.007583
     4  C   -0.000260   0.000081  -0.000288  -0.012810   0.248075  -0.078210
     5  C   -0.000000  -0.000000  -0.000000  -0.000430   0.003940   0.003502
     6  H   -0.000000   0.000000   0.000000  -0.000230  -0.000358   0.000054
     7  H    0.000000  -0.000000   0.000018   0.004684  -0.000008  -0.000316
     8  H    0.000000  -0.000000  -0.000002  -0.000121   0.001324  -0.003403
     9  N   -0.000001   0.000000   0.000012   0.002454  -0.075239   0.009622
    10  H   -0.000000   0.000001  -0.000024  -0.000374   0.005737  -0.000438
    11  H   -0.000000  -0.000000  -0.000001   0.000437   0.002820  -0.000739
    12  C    0.016434  -0.004092   0.014768  -0.086228  -0.040556  -0.025097
    13  C   -0.063748   0.011984  -0.003569   0.002885   0.017920  -0.005957
    14  C    0.460477  -0.059184   0.010842  -0.000911  -0.001685  -0.000126
    15  C   -0.060249   0.456611  -0.055689   0.006087   0.000832   0.000646
    16  C    0.012072  -0.059187   0.451091  -0.000529  -0.001576   0.000024
    17  C   -0.004711   0.013247  -0.055227   0.439362  -0.000258   0.003479
    18  H   -0.007143  -0.000033   0.000008   0.000043   0.008766  -0.000502
    19  H    0.508199  -0.006891  -0.000050   0.000041  -0.000035  -0.000025
    20  H   -0.006891   0.507573  -0.006654  -0.000127   0.000000   0.000005
    21  H   -0.000050  -0.006654   0.506448  -0.006665   0.000012  -0.000009
    22  H    0.000041  -0.000127  -0.006665   0.522801  -0.000173   0.000227
    23  Cl  -0.000035   0.000000   0.000012  -0.000173  17.071163   0.003147
    24  C   -0.000025   0.000005  -0.000009   0.000227   0.003147   4.994304
    25  H   -0.000002  -0.000000   0.000001  -0.000025  -0.000441   0.412631
    26  H   -0.000048   0.000001   0.000003  -0.000290  -0.000280   0.446902
    27  H    0.000017   0.000001  -0.000002   0.000026   0.000920   0.417879
    28  O    0.000000   0.000000   0.000000   0.000025  -0.020494   0.005206
    29  C   -0.000000   0.000000  -0.000000   0.000000   0.002395  -0.000852
    30  H    0.000000  -0.000000  -0.000000  -0.000000   0.000507   0.000042
    31  H   -0.000000   0.000000   0.000000  -0.000000  -0.000009  -0.000365
    32  H   -0.000000   0.000000  -0.000000   0.000000   0.000080   0.000020
              25         26         27         28         29         30
     1  C   -0.054543  -0.068137  -0.046947  -0.190367   0.009537   0.003492
     2  C   -0.002618   0.006474  -0.004420   0.365200  -0.048067   0.005864
     3  O    0.009683   0.001857   0.000675  -0.100882   0.001603   0.002390
     4  C    0.007409  -0.005959  -0.006683   0.027696  -0.003729  -0.001000
     5  C    0.000681   0.000889  -0.000175   0.007222  -0.000617   0.000044
     6  H   -0.000001   0.000010  -0.000002  -0.000484   0.000070   0.000012
     7  H   -0.000046  -0.000189   0.000010   0.000157   0.000003  -0.000001
     8  H   -0.000396  -0.001064   0.000556  -0.002647  -0.000076  -0.000021
     9  N    0.000896   0.001055  -0.001049  -0.006402   0.000468   0.000183
    10  H   -0.000013  -0.000023   0.000025   0.000359  -0.000038  -0.000016
    11  H    0.000007  -0.000062   0.000012   0.011810  -0.000889  -0.000506
    12  C   -0.001844  -0.006409   0.003087   0.003145   0.000056  -0.000014
    13  C    0.000927  -0.005841   0.002393   0.000124  -0.000002  -0.000001
    14  C   -0.000056  -0.001186   0.000082  -0.000007  -0.000000   0.000000
    15  C   -0.000023   0.000736   0.000242   0.000001   0.000000  -0.000000
    16  C    0.000024   0.000337  -0.000265  -0.000003   0.000000   0.000000
    17  C    0.000203   0.000968   0.000013   0.000142  -0.000002  -0.000000
    18  H    0.000072   0.000553  -0.001195   0.000024   0.000002  -0.000001
    19  H   -0.000002  -0.000048   0.000017   0.000000  -0.000000   0.000000
    20  H   -0.000000   0.000001   0.000001   0.000000   0.000000  -0.000000
    21  H    0.000001   0.000003  -0.000002   0.000000  -0.000000  -0.000000
    22  H   -0.000025  -0.000290   0.000026   0.000025   0.000000  -0.000000
    23  Cl  -0.000441  -0.000280   0.000920  -0.020494   0.002395   0.000507
    24  C    0.412631   0.446902   0.417879   0.005206  -0.000852   0.000042
    25  H    0.547830  -0.018006  -0.032548   0.000414  -0.000113   0.000000
    26  H   -0.018006   0.540556  -0.031334   0.000139   0.000004  -0.000002
    27  H   -0.032548  -0.031334   0.578079  -0.000115   0.000017  -0.000002
    28  O    0.000414   0.000139  -0.000115   8.100000   0.225079  -0.033900
    29  C   -0.000113   0.000004   0.000017   0.225079   4.775443   0.397628
    30  H    0.000000  -0.000002  -0.000002  -0.033900   0.397628   0.531863
    31  H    0.000058  -0.000003   0.000004  -0.036470   0.419278  -0.022548
    32  H   -0.000033  -0.000000  -0.000007  -0.037474   0.422686  -0.021593
              31         32
     1  C   -0.004473   0.000175
     2  C   -0.007438  -0.009279
     3  O    0.007315   0.005185
     4  C    0.001203  -0.000799
     5  C   -0.000449   0.000125
     6  H    0.000062  -0.000008
     7  H   -0.000008   0.000001
     8  H    0.000190  -0.000029
     9  N   -0.000084   0.000011
    10  H    0.000002   0.000001
    11  H    0.000085   0.000188
    12  C    0.000012   0.000026
    13  C    0.000001  -0.000003
    14  C   -0.000000  -0.000000
    15  C   -0.000000   0.000000
    16  C    0.000000  -0.000000
    17  C   -0.000002   0.000002
    18  H   -0.000000   0.000002
    19  H   -0.000000  -0.000000
    20  H    0.000000   0.000000
    21  H    0.000000  -0.000000
    22  H   -0.000000   0.000000
    23  Cl  -0.000009   0.000080
    24  C   -0.000365   0.000020
    25  H    0.000058  -0.000033
    26  H   -0.000003  -0.000000
    27  H    0.000004  -0.000007
    28  O   -0.036470  -0.037474
    29  C    0.419278   0.422686
    30  H   -0.022548  -0.021593
    31  H    0.557051  -0.040804
    32  H   -0.040804   0.552535
 Mulliken charges:
               1
     1  C   -0.337054
     2  C    0.407593
     3  O   -0.502334
     4  C    0.314326
     5  C   -0.284420
     6  H    0.160603
     7  H    0.151592
     8  H    0.153382
     9  N   -0.332540
    10  H    0.291018
    11  H    0.282851
    12  C    0.150604
    13  C   -0.316762
    14  C   -0.121904
    15  C   -0.145069
    16  C   -0.169645
    17  C   -0.160230
    18  H    0.159566
    19  H    0.146013
    20  H    0.146661
    21  H    0.144976
    22  H    0.128765
    23  Cl  -0.166980
    24  C   -0.366513
    25  H    0.129869
    26  H    0.138350
    27  H    0.120704
    28  O   -0.317499
    29  C   -0.199887
    30  H    0.137579
    31  H    0.127392
    32  H    0.128994
 Sum of Mulliken charges =  -0.00000
 Mulliken charges with hydrogens summed into heavy atoms:
               1
     1  C   -0.337054
     2  C    0.407593
     3  O   -0.502334
     4  C    0.314326
     5  C    0.181158
     9  N    0.241328
    12  C    0.150604
    13  C   -0.157196
    14  C    0.024109
    15  C    0.001592
    16  C   -0.024669
    17  C   -0.031465
    23  Cl  -0.166980
    24  C    0.022410
    28  O   -0.317499
    29  C    0.194078
 APT charges:
               1
     1  C    0.009479
     2  C   -0.376886
     3  O    0.121615
     4  C   -0.044123
     5  C   -1.122618
     6  H    0.670436
     7  H    0.405750
     8  H    0.164004
     9  N   -0.742525
    10  H    0.613401
    11  H    0.511946
    12  C   -0.272981
    13  C   -0.634381
    14  C   -0.563607
    15  C   -0.634201
    16  C   -0.639331
    17  C   -0.569185
    18  H    0.286030
    19  H    0.768810
    20  H    1.031418
    21  H    0.797597
    22  H    0.312688
    23  Cl   0.078468
    24  C   -1.304094
    25  H    0.487520
    26  H    0.263385
    27  H    0.383270
    28  O   -0.150333
    29  C   -1.395060
    30  H    0.523802
    31  H    0.534630
    32  H    0.485075
 Sum of APT charges =  -0.00000
 APT charges with hydrogens summed into heavy atoms:
               1
     1  C    0.009479
     2  C   -0.376886
     3  O    0.121615
     4  C   -0.044123
     5  C    0.117572
     9  N    0.382822
    12  C   -0.272981
    13  C   -0.348350
    14  C    0.205202
    15  C    0.397217
    16  C    0.158266
    17  C   -0.256497
    23  Cl   0.078468
    24  C   -0.169919
    28  O   -0.150333
    29  C    0.148446
 Electronic spatial extent (au):  <R**2>=           4068.0725
 Charge=             -0.0000 electrons
 Dipole moment (field-independent basis, Debye):
    X=              3.4199    Y=              7.8962    Z=             -0.6390  Tot=              8.6287
 Quadrupole moment (field-independent basis, Debye-Ang):
   XX=            -95.9727   YY=            -93.6211   ZZ=           -107.3604
   XY=            -13.9170   XZ=             -7.2873   YZ=             -9.1677
 Traceless Quadrupole moment (field-independent basis, Debye-Ang):
   XX=              3.0120   YY=              5.3636   ZZ=             -8.3756
   XY=            -13.9170   XZ=             -7.2873   YZ=             -9.1677
 Octapole moment (field-independent basis, Debye-Ang**2):
  XXX=             11.7951  YYY=             52.6282  ZZZ=             -0.8896  XYY=             16.3736
  XXY=             38.6137  XXZ=             20.8150  XZZ=            -13.4811  YZZ=             12.7072
  YYZ=              8.1809  XYZ=              2.8092
 Hexadecapole moment (field-independent basis, Debye-Ang**3):
 XXXX=          -3243.5871 YYYY=           -890.7360 ZZZZ=           -808.5183 XXXY=           -140.4724
 XXXZ=           -123.7455 YYYX=            -61.7507 YYYZ=            -42.0371 ZZZX=             -8.4738
 ZZZY=            -14.0605 XXYY=           -777.0467 XXZZ=           -775.3518 YYZZ=           -287.3055
 XXYZ=            -73.9627 YYXZ=            -20.1425 ZZXY=            -11.6397
 N-N= 1.282215903224D+03 E-N=-5.225939027985D+03  KE= 1.128452777792D+03
  Exact polarizability:   0.000   0.000   0.000   0.000   0.000   0.000
 Approx polarizability: 210.729   8.038 202.887  -2.098  -4.733 169.459
   1 Symmetry operations used in ECPInt.
 ECPInt:  NShTT=   29403 NPrTT=   90090 LenC2=   27051 LenP2D=   60615.
 LDataN:  DoStor=T MaxTD1= 8 Len=  415
 D2PCM: PCM CHGder 2nd derivatives, FixD1E=F FixD2E=F DoIter=F DoCFld=F I1PDM=0
 Calling FoFJK, ICntrl=    100147 FMM=F ISym2X=0 I1Cent= 0 IOpClX= 0 NMat=1 NMatS=1 NMatT=0.
 ***** Axes restored to original set *****
 -------------------------------------------------------------------
 Center     Atomic                   Forces (Hartrees/Bohr)
 Number     Number              X              Y              Z
 -------------------------------------------------------------------
      1        6           0.000012519    0.000001496    0.000005311
      2        6          -0.000013018   -0.000007112   -0.000002038
      3        8           0.000004453   -0.000001384    0.000000003
      4        6          -0.000005649    0.000005825    0.000020976
      5        6           0.000003690   -0.000009692    0.000007751
      6        1          -0.000001566   -0.000000626    0.000005876
      7        1           0.000002721   -0.000001287    0.000011090
      8        1          -0.000003166   -0.000001259    0.000000993
      9        7           0.000003602   -0.000013128    0.000001336
     10        1          -0.000007587    0.000005683    0.000005184
     11        1          -0.000000769    0.000005119    0.000002636
     12        6          -0.000001116    0.000018506   -0.000001239
     13        6           0.000012814   -0.000000692    0.000000466
     14        6          -0.000003295   -0.000001686   -0.000002540
     15        6          -0.000000571   -0.000001699    0.000000051
     16        6           0.000001710   -0.000007578    0.000002238
     17        6          -0.000000545   -0.000004664    0.000004033
     18        1           0.000002743    0.000001016   -0.000005176
     19        1           0.000001686   -0.000002008   -0.000004677
     20        1           0.000001248   -0.000005363   -0.000000345
     21        1          -0.000001610   -0.000006061    0.000003422
     22        1          -0.000012329   -0.000008959   -0.000005337
     23       17           0.000000988    0.000005951   -0.000018648
     24        6           0.000001997   -0.000003299   -0.000007171
     25        1           0.000003073   -0.000001879   -0.000006613
     26        1           0.000001631   -0.000003861   -0.000004329
     27        1           0.000002799   -0.000004191   -0.000006498
     28        8          -0.000007363    0.000017136    0.000000771
     29        6           0.000004424    0.000007778   -0.000002792
     30        1          -0.000001901    0.000005305    0.000003435
     31        1          -0.000003263    0.000003833   -0.000003840
     32        1           0.000001651    0.000008780   -0.000004330
 -------------------------------------------------------------------
 Cartesian Forces:  Max     0.000020976 RMS     0.000006373
 FormGI is forming the generalized inverse of G from B-inverse, IUseBI=4.

 GradGradGradGradGradGradGradGradGradGradGradGradGradGradGradGradGradGrad
 Berny optimization.
 Internal  Forces:  Max     0.000037272 RMS     0.000007020
 Search for a saddle point.
 Step number   1 out of a maximum of   70
 All quantities printed in internal units (Hartrees-Bohrs-Radians)
 Swapping is turned off.
 Second derivative matrix not updated -- analytic derivatives used.
 ITU=  0
     Eigenvalues ---   -0.03771   0.00007   0.00098   0.00172   0.00344
     Eigenvalues ---    0.00648   0.00828   0.01092   0.01526   0.01591
     Eigenvalues ---    0.01766   0.01850   0.02223   0.02366   0.02433
     Eigenvalues ---    0.02539   0.02706   0.02862   0.02917   0.02975
     Eigenvalues ---    0.03730   0.04535   0.04874   0.04980   0.05645
     Eigenvalues ---    0.05829   0.05868   0.07547   0.08306   0.08513
     Eigenvalues ---    0.08596   0.09556   0.09958   0.10946   0.11630
     Eigenvalues ---    0.11943   0.12010   0.12358   0.12802   0.12966
     Eigenvalues ---    0.13205   0.14627   0.15039   0.15372   0.16256
     Eigenvalues ---    0.16772   0.17976   0.18348   0.18493   0.18786
     Eigenvalues ---    0.18885   0.19203   0.19498   0.19622   0.20193
     Eigenvalues ---    0.24226   0.25405   0.26203   0.27655   0.30478
     Eigenvalues ---    0.30758   0.32917   0.33283   0.34068   0.34112
     Eigenvalues ---    0.34270   0.34496   0.34573   0.34850   0.35054
     Eigenvalues ---    0.35401   0.36258   0.36347   0.36473   0.36554
     Eigenvalues ---    0.36858   0.37447   0.37972   0.40285   0.42309
     Eigenvalues ---    0.44945   0.45329   0.45493   0.45847   0.46811
     Eigenvalues ---    0.48295   0.49149   0.52191   0.55296   0.78473
 Eigenvectors required to have negative eigenvalues:
                          R6        D10       D7        R8        D29
   1                   -0.86033   0.20022   0.18898   0.17469   0.11282
                          D28       R2        D8        A20       D5
   1                    0.11019   0.10732   0.10311  -0.09277   0.09186
 RFO step:  Lambda0=7.211504508D-09 Lambda=-3.23124612D-07.
 Linear search not attempted -- option 19 set.
 Iteration  1 RMS(Cart)=  0.01223775 RMS(Int)=  0.00004063
 Iteration  2 RMS(Cart)=  0.00006595 RMS(Int)=  0.00000056
 Iteration  3 RMS(Cart)=  0.00000000 RMS(Int)=  0.00000056
 Variable       Old X    -DE/DX   Delta X   Delta X   Delta X     New X
                                 (Linear)    (Quad)   (Total)
    R1        2.71284  -0.00002   0.00000  -0.00002  -0.00002   2.71283
    R2        2.62907  -0.00000   0.00000   0.00008   0.00008   2.62915
    R3        2.86033  -0.00001   0.00000   0.00006   0.00006   2.86040
    R4        2.31132   0.00001   0.00000  -0.00002  -0.00002   2.31131
    R5        2.56830   0.00001   0.00000   0.00005   0.00005   2.56835
    R6        3.60958  -0.00001   0.00000   0.00037   0.00037   3.60995
    R7        2.84209   0.00000   0.00000   0.00003   0.00003   2.84212
    R8        3.47721   0.00002   0.00000  -0.00055  -0.00055   3.47666
    R9        2.05786   0.00000   0.00000   0.00007   0.00007   2.05792
   R10        2.05387  -0.00000   0.00000   0.00009   0.00009   2.05396
   R11        2.06457  -0.00000   0.00000  -0.00020  -0.00020   2.06437
   R12        2.75388   0.00001   0.00000   0.00003   0.00003   2.75391
   R13        1.91536   0.00001   0.00000   0.00003   0.00003   1.91538
   R14        1.91648   0.00000   0.00000   0.00018   0.00018   1.91666
   R15        2.63822  -0.00000   0.00000   0.00013   0.00013   2.63835
   R16        2.62176  -0.00000   0.00000  -0.00000  -0.00000   2.62176
   R17        2.61201   0.00000   0.00000  -0.00004  -0.00004   2.61196
   R18        2.04582   0.00000   0.00000  -0.00000  -0.00000   2.04582
   R19        2.62566  -0.00000   0.00000  -0.00000  -0.00001   2.62565
   R20        2.04564   0.00000   0.00000   0.00000   0.00000   2.04564
   R21        2.61420  -0.00000   0.00000  -0.00003  -0.00003   2.61416
   R22        2.04539  -0.00000   0.00000  -0.00000  -0.00000   2.04539
   R23        2.62662  -0.00000   0.00000   0.00002   0.00002   2.62665
   R24        2.04545  -0.00000   0.00000  -0.00001  -0.00001   2.04545
   R25        2.03903  -0.00001   0.00000  -0.00005  -0.00005   2.03899
   R26        2.06022  -0.00000   0.00000   0.00008   0.00008   2.06029
   R27        2.05890  -0.00000   0.00000  -0.00005  -0.00005   2.05885
   R28        2.06924   0.00000   0.00000  -0.00002  -0.00002   2.06922
   R29        2.68422   0.00000   0.00000   0.00004   0.00004   2.68426
   R30        2.05457  -0.00000   0.00000  -0.00001  -0.00001   2.05455
   R31        2.06008  -0.00000   0.00000  -0.00002  -0.00002   2.06006
   R32        2.06035   0.00000   0.00000  -0.00000  -0.00000   2.06035
    A1        2.15499  -0.00001   0.00000   0.00017   0.00017   2.15516
    A2        2.01807   0.00001   0.00000  -0.00070  -0.00070   2.01737
    A3        2.10833   0.00000   0.00000   0.00036   0.00036   2.10869
    A4        2.18841   0.00001   0.00000  -0.00023  -0.00023   2.18818
    A5        1.99286  -0.00002   0.00000   0.00027   0.00027   1.99313
    A6        2.10074   0.00001   0.00000  -0.00004  -0.00004   2.10070
    A7        1.90387  -0.00002   0.00000  -0.00120  -0.00120   1.90267
    A8        2.06425  -0.00000   0.00000   0.00079   0.00079   2.06504
    A9        2.07701   0.00001   0.00000   0.00018   0.00018   2.07719
   A10        1.86624   0.00003   0.00000   0.00045   0.00045   1.86669
   A11        1.62750   0.00000   0.00000   0.00056   0.00056   1.62806
   A12        1.86579  -0.00001   0.00000  -0.00081  -0.00081   1.86498
   A13        1.90806  -0.00000   0.00000   0.00025   0.00025   1.90831
   A14        1.90354   0.00000   0.00000   0.00001   0.00001   1.90355
   A15        1.94042  -0.00000   0.00000   0.00016   0.00016   1.94058
[...]
 .00001254,-0.00004779,0.00000013,0.00004778,0.00001459,0.00006522,-0.0
 0209097,0.00019935,-0.00021173,-0.00025817,-0.00011644,0.00011064,0.00
 003699,-0.00005827,-0.00000895,-0.00047206,0.00020165,0.00010415,0.000
 04753,-0.00004183,-0.00014749,0.00002142,0.00005071,0.00007513,-0.0001
 4989,-0.00005076,0.00022882,0.00007556,-0.00004251,-0.00014888,0.00015
 470,0.00010176,-0.00007010,-0.00002944,-0.00022300,0.00002048,0.000018
 09,-0.00002069,0.00001678,-0.00000577,-0.00000394,0.00002722,0.0000066
 2,-0.00002416,-0.00003943,-0.00002237,0.00002512,-0.00013433,-0.000242
 09,0.00033664,-0.06247575,-0.05731067,-0.02319110,-0.00519693,-0.02039
 937,-0.00779515,0.00727921,0.02443103,0.00928311,0.06350782,-0.0054058
 5,-0.01444534,0.00490565,0.00339653,-0.00147235,0.00061508,-0.00146034
 ,0.00090710,-0.00081109,-0.00285308,0.00406855,-0.00129414,-0.00009715
 ,0.00002556,0.00041941,-0.00002343,-0.00004551,-0.00019130,0.00002930,
 -0.00002682,-0.00004571,-0.00003137,0.00012848,0.00009090,0.00035993,-
 0.00332161,0.00021970,-0.00036318,-0.00042095,-0.00021874,0.00016559,0
 .00013049,-0.00009604,-0.00046932,-0.00034781,0.00000658,0.00027739,-0
 .00013393,-0.00031339,0.00022298,0.00007407,-0.00009411,0.00007764,0.0
 0010453,0.00009428,-0.00014680,0.00000047,-0.00001284,0.00022845,-0.00
 003367,0.00012549,-0.00002936,0.00006318,0.00027111,0.00001936,0.00000
 843,-0.00002735,-0.00000166,0.00001157,0.00001077,0.00002626,0.0000067
 5,-0.00002215,-0.00005754,0.00003859,0.00002260,0.00001012,-0.00026167
 ,0.00011702,-0.05589177,-0.25664233,-0.08112915,0.00097256,0.00357386,
 0.00064294,-0.00376563,-0.01299173,-0.00560932,0.06595018,0.28134120,0
 .00617068,0.02617773,0.00466320,-0.00124740,0.00104621,-0.00023753,0.0
 0057040,-0.00048578,0.00045618,0.00233399,-0.00391752,0.00016470,-0.00
 004930,0.00026763,-0.00076121,0.00005326,-0.00002637,0.00024054,-0.000
 03914,0.00004174,0.00005371,0.00013598,-0.00012829,0.00001163,-0.00009
 310,0.00409761,0.00024354,0.00030232,0.00043955,0.00023034,-0.00019646
 ,-0.00010195,0.00009685,0.00013230,0.00054457,0.00006866,-0.00016437,0
 .00035623,-0.00012855,0.00000394,-0.00013888,-0.00004989,0.00002137,-0
 .00002923,-0.00001144,0.00002157,0.00002493,0.00002274,-0.00019515,-0.
 00006632,0.00020986,-0.00010520,-0.00003270,-0.00035138,-0.00001167,0.
 00000053,-0.00000682,0.00000401,-0.00001268,-0.00000960,-0.00002851,0.
 00001048,-0.00002746,0.00004980,-0.00001246,-0.00002486,-0.00014842,-0
 .00058739,0.00093464,-0.02157986,-0.07747365,-0.07299633,-0.00471922,-
 0.02164013,-0.00843512,-0.00345223,-0.00970251,-0.00456309,0.02155965,
 0.08165795,0.08105755,-0.03986276,-0.02942401,0.02375606,-0.14069337,-
 0.03732762,0.03688663,0.02690420,0.00671745,-0.00583397,0.00316353,-0.
 01833024,0.00993224,0.00016214,0.00022495,-0.00242364,0.00013990,0.000
 20266,0.00054372,-0.00007113,0.00001724,0.00028322,-0.00037709,-0.0009
 4415,-0.00008009,-0.00012949,0.01132146,-0.00074335,0.00007985,-0.0000
 4172,0.00093616,-0.00387314,0.00052820,0.00152889,0.00182168,0.0001600
 2,-0.00072052,-0.00095289,0.00031708,0.00004260,0.00004020,-0.00015722
 ,-0.00003806,-0.00036473,0.00008239,0.00006862,-0.00022025,-0.00003665
 ,0.00009645,-0.00031059,-0.00021611,-0.00011825,0.00018066,0.00025210,
 0.00014278,-0.00015954,-0.00009747,0.00000546,-0.00010166,-0.00000337,
 0.00000303,-0.00016420,0.00002656,0.00006289,0.00015008,-0.00000344,-0
 .00004250,-0.00557329,0.00183286,-0.00660933,-0.00637339,0.00300057,-0
 .00170815,0.00042440,-0.00005646,0.00024537,-0.00106223,-0.00138311,0.
 00169021,-0.00072862,-0.00128694,0.00064411,0.47040873,-0.02819439,0.0
 0624334,0.00417677,-0.01073359,-0.14455813,0.05419548,0.00463652,-0.07
 047651,0.06275176,0.00312223,-0.01976483,0.00902708,0.00042481,0.00085
 074,-0.00077847,-0.00011524,0.00006241,0.00049446,-0.00002346,-0.00010
 207,-0.00006762,-0.00031561,-0.00087111,0.00006278,0.00432737,0.005983
 01,0.00082033,0.00168253,0.00102954,-0.00048746,-0.00191184,0.00198400
 ,-0.00101719,0.00105786,-0.00010052,-0.00063721,-0.00057829,0.00022793
 ,-0.00008580,-0.00004052,-0.00009264,0.00002127,-0.00015150,-0.0000031
 5,0.00002225,-0.00009106,0.00008981,0.00008269,-0.00011043,-0.00017138
 ,-0.00014220,0.00010185,0.00016624,0.00008425,-0.00008931,-0.00005334,
 0.00001133,-0.00004875,0.00000837,0.00000250,-0.00008486,0.00001129,0.
 00002897,0.00005080,0.00010687,0.00003059,0.00216457,0.00290398,-0.002
 31151,0.00004888,0.00310932,0.00089772,-0.00019562,-0.00015318,-0.0001
 8254,-0.00030136,-0.00041288,0.00058764,0.00007988,-0.00039241,-0.0002
 0554,0.02604913,0.28819165,0.02561377,0.00710778,0.00577426,0.01823127
 ,0.05984099,-0.10397033,-0.00139138,0.06314949,-0.01540934,-0.00279999
 ,0.01416473,-0.00873464,-0.00024489,0.00013726,0.00103345,-0.00007381,
 -0.00009672,-0.00026874,0.00001159,-0.00000916,-0.00004842,0.00044226,
 0.00050599,0.00003387,-0.00041727,-0.00702226,0.00104923,-0.00061210,-
 0.00076976,-0.00038131,0.00157718,-0.00113218,-0.00112580,-0.00058008,
 -0.00081013,0.00001317,0.00029246,-0.00021444,0.00009008,0.00006776,0.
 00005108,0.00001888,0.00010949,0.00002203,-0.00000864,0.00006182,-0.00
 007691,-0.00009979,0.00030119,0.00008329,0.00012102,-0.00011860,-0.000
 10054,-0.00009948,0.00006669,0.00003934,-0.00000527,0.00004163,0.00000
 256,-0.00000214,0.00007981,-0.00000254,-0.00003395,-0.00008072,-0.0000
 1211,0.00002385,-0.00781055,-0.00107889,-0.00022539,0.00086968,0.00035
 985,0.00144811,-0.00031058,0.00004945,-0.00001394,0.00033824,0.0000822
 7,-0.00001750,0.00042389,0.00052853,-0.00066953,-0.07676809,-0.1425575
 2,0.18104633,0.00957771,-0.00069250,0.00163049,-0.03946945,-0.03132143
 ,0.02616868,-0.00245094,0.01342922,-0.00953115,-0.00208235,0.00572958,
 -0.00340408,0.00002277,0.00017534,0.00102905,-0.00009556,-0.00009986,-
 0.00020305,0.00009328,-0.00011686,-0.00014003,0.00001603,0.00029416,0.
 00025619,0.00050888,-0.00324115,0.00006693,0.00001958,-0.00012303,-0.0
 0042743,-0.00161265,0.00199775,-0.00026415,-0.00065036,-0.00008097,0.0
 0032553,0.00042758,-0.00013086,-0.00005541,-0.00001013,0.00007838,0.00
 001548,0.00017057,-0.00002967,-0.00002708,0.00009245,0.00001991,-0.000
 03512,0.00018281,0.00011523,0.00004320,-0.00007027,-0.00009792,-0.0000
 4411,0.00007234,0.00004297,-0.00000091,0.00004563,0.00000341,-0.000000
 12,0.00007598,-0.00001391,-0.00002492,-0.00009304,0.00001003,0.0000240
 2,0.00078577,-0.00071900,0.00098650,0.00048191,-0.00060109,-0.00026634
 ,0.00002014,0.00007888,-0.00005613,0.00028195,0.00013280,-0.00027913,0
 .00013072,0.00038291,-0.00010687,-0.21258267,0.00894962,0.01851229,0.4
 6254003,0.00096233,-0.00241790,0.00444213,-0.03757326,0.00066334,0.004
 57117,-0.00200016,-0.00144414,-0.00166834,-0.00008356,-0.00031484,-0.0
 0019732,-0.00002608,0.00015931,0.00025776,-0.00002570,-0.00001024,-0.0
 0001481,0.00000988,-0.00001592,-0.00004619,0.00000361,-0.00000126,0.00
 002718,0.00012591,-0.00043623,0.00013274,0.00019160,0.00015719,-0.0001
 4373,-0.00010910,0.00095070,-0.00028428,-0.00008252,0.00013044,-0.0000
 1025,0.00008703,-0.00001932,-0.00001118,0.00000981,0.00001978,0.000010
 84,0.00001117,0.00000120,0.00000133,0.00000066,0.00000316,0.00000644,0
 .00001223,-0.00002616,-0.00001778,-0.00000149,-0.00000700,-0.00000117,
 0.00000819,0.00000380,-0.00000152,0.00000427,0.00000181,-0.00000075,0.
 00000598,-0.00000094,-0.00000300,-0.00001193,0.00001527,0.00000176,0.0
 0024666,0.00009356,-0.00007546,-0.00115765,0.00078013,0.00028346,0.000
 04566,0.00001969,-0.00005211,-0.00017524,-0.00025292,0.00031690,0.0000
 2425,0.00004703,-0.00010691,0.03018243,-0.08475601,0.00699502,0.009811
 59,0.61351136,0.00070238,0.00345302,0.00161988,0.02807996,0.00402952,-
 0.00867543,0.00153682,-0.00514935,-0.00140762,0.00080357,0.00037902,-0
 .00052337,-0.00008656,0.00000993,0.00000066,-0.00000248,0.00001339,0.0
 0001702,-0.00001089,0.00002731,0.00003245,0.00003125,0.00004171,-0.000
 03274,-0.00062066,-0.00024471,-0.00004876,-0.00007442,0.00010306,0.000
 10626,0.00035162,-0.00086112,-0.00013978,0.00012625,-0.00006018,-0.000
 06022,-0.00000810,0.00000700,0.00001584,-0.00000731,-0.00000558,0.0000
 1307,-0.00002201,-0.00000801,-0.00000035,0.00000059,-0.00000210,-0.000
 00206,-0.00003422,-0.00002660,-0.00000388,0.00000753,0.00001205,-0.000
 00700,-0.00000768,-0.00000426,-0.00000151,-0.00000498,-0.00000030,-0.0
 0000173,-0.00000760,0.00000285,0.00000061,0.00001615,-0.00000053,-0.00
 000725,-0.00062245,0.00009256,-0.00054817,0.00025756,0.00079553,0.0006
 8444,-0.00003585,-0.00004622,0.00001688,-0.00003313,-0.00008112,0.0001
 5706,0.00012985,0.00008559,-0.00017498,0.00621773,0.01108886,-0.069894
 21,0.01571696,-0.01705141,0.59547077,-0.00096001,-0.00112321,0.0008141
 4,-0.00517489,0.00590807,-0.00271729,0.00272024,-0.00054061,0.00001527
 ,0.00029574,-0.00103616,0.00058502,0.00001473,0.00000720,-0.00011688,0
 .00000790,0.00001141,0.00002958,-0.00000980,0.00001101,0.00000641,-0.0
 0000390,-0.00005433,-0.00003090,0.00003266,0.00052005,0.00000272,0.000
 04391,0.00003983,0.00003229,-0.00000530,-0.00005865,0.00004881,0.00007
 909,0.00005803,-0.00004906,-0.00004697,0.00001999,0.00000084,0.0000005
 0,-0.00000861,0.00000015,-0.00002032,0.00000359,0.00000356,-0.00001340
 ,0.00000097,0.00000817,-0.00002647,-0.00001985,-0.00001097,0.00001038,
 0.00001287,0.00000824,-0.00000897,-0.00000555,0.00000016,-0.00000571,-
 0.00000007,-0.00000006,-0.00001018,0.00000142,0.00000361,0.00001079,0.
 00000217,-0.00000233,0.00004757,0.00013012,-0.00016619,-0.00045107,0.0
 0018520,-0.00009013,0.00002882,-0.00000012,0.00001053,-0.00008436,-0.0
 0009380,0.00010940,-0.00004622,-0.00007248,0.00003633,-0.02498441,-0.0
 3420076,0.02628597,-0.05583593,-0.03813092,0.02606226,0.07622476,-0.00
 043335,0.00024840,-0.00003159,0.00246884,0.00052045,-0.00030989,-0.001
 66470,0.00017550,0.00041990,0.00012120,-0.00036937,0.00025280,-0.00000
 444,-0.00000156,-0.00005774,0.00000161,0.00000381,0.00001443,-0.000005
 06,0.00000564,0.00000950,-0.00000065,-0.00001977,-0.00001267,-0.000027
 21,0.00021492,-0.00002569,-0.00000840,0.00001202,0.00003079,0.00004450
 ,-0.00012239,0.00003184,0.00004323,-0.00000062,-0.00003165,-0.00002748
 ,0.00000929,0.00000132,-0.00000031,-0.00000540,-0.00000004,-0.00001047
 ,0.00000112,0.00000140,-0.00000464,-0.00000129,0.00000286,-0.00001110,
 -0.00000582,-0.00000326,0.00000399,0.00000631,0.00000292,-0.00000462,-
 0.00000280,0.00000014,-0.00000289,-0.00000015,-0.00000007,-0.00000468,
 0.00000089,0.00000158,0.00000590,0.00000001,-0.00000154,-0.00006752,0.
 00003751,-0.00011514,-0.00003563,0.00007580,-0.00000396,0.00000036,0.0
 0000374,-0.00001962,-0.00003310,-0.00001756,0.00001093,-0.00000688,-0.
 00002524,0.00000705,0.00041393,0.00408922,-0.00237814,-0.04885706,-0.2
 2962949,0.12535682,0.05187030,0.23942970,0.00054356,0.00008451,0.00010
 138,-0.00085029,-0.00106227,0.00087334,0.00081433,0.00033563,0.0002307
 1,-0.00013903,0.00048948,-0.00026158,-0.00000320,-0.00000034,0.0000682
 2,-0.00000440,-0.00000730,-0.00001856,0.00000365,-0.00000631,-0.000007
 22,-0.00000125,0.00002586,0.00001427,-0.00000187,-0.00028978,-0.000000
 50,-0.00001452,-0.00002189,-0.00002434,0.00001177,0.00007512,-0.000012
 51,-0.00004478,-0.00002166,0.00001966,0.00002738,-0.00000957,-0.000002
 70,-0.00000026,0.00000494,0.00000003,0.00001128,-0.00000189,-0.0000018
 2,0.00000655,-0.00000025,-0.00000304,0.00001425,0.00000949,0.00000446,
 -0.00000526,-0.00000750,-0.00000320,0.00000479,0.00000296,-0.00000002,
 0.00000309,0.00000014,-0.00000003,0.00000540,-0.00000085,-0.00000189,-
 0.00000621,-0.00000074,0.00000135,0.00008074,-0.00003365,0.00007520,0.
 00005965,-0.00005588,0.00005052,-0.00000750,0.00000098,0.00000163,0.00
 002099,0.00001549,-0.00001615,0.00001047,0.00003172,-0.00001232,0.0040
 6712,0.00343109,-0.00209367,0.03291472,0.12358897,-0.13992939,-0.03925
 247,-0.13631912,0.14343523,-0.00114428,0.00027839,0.00060749,0.0023150
 8,0.00707961,-0.00602053,0.00163189,-0.00251896,0.00160445,0.00068781,
 -0.00101181,0.00040627,-0.00000581,-0.00000320,-0.00017775,0.00001386,
 0.00002135,0.00004014,-0.00000976,0.00001808,0.00003250,-0.00000398,-0
 .00005570,-0.00003919,-0.00012299,0.00050668,-0.00000558,-0.00000292,0
 .00005099,0.00008739,0.00020001,-0.00047210,-0.00002516,0.00014517,0.0
 0002830,-0.00004843,-0.00006593,0.00002404,0.00000911,0.00000059,-0.00
 001213,-0.00000091,-0.00003293,0.00000465,0.00000488,-0.00001820,-0.00
 000106,0.00000567,-0.00003661,-0.00003041,-0.00001262,0.00001447,0.000
 01997,0.00000771,-0.00001364,-0.00000825,-0.00000016,-0.00000873,-0.00
 000066,0.00000024,-0.00001507,0.00000283,0.00000450,0.00001945,-0.0000
 0002,-0.00000390,-0.00029640,0.00014708,-0.00032399,-0.00014247,0.0003
 0419,0.00007708,0.00000338,-0.00002746,0.00003524,-0.00006126,-0.00007
 334,0.00010441,-0.00001680,-0.00006001,0.00000905,-0.03735765,-0.00434
 382,-0.02462384,-0.10047951,-0.00570048,-0.10235728,0.00520521,0.00126
 754,0.00600338,0.12394436,0.00001464,-0.00000137,0.00019026,-0.0015201
 1,0.00083166,-0.00077617,0.00068233,-0.00041374,0.00009862,0.00000616,
 0.00002422,0.00001006,-0.00000067,-0.00001485,0.00002473,0.00000065,-0
 .00000171,-0.00000688,0.00000055,-0.00000113,-0.00000352,-0.00000795,0
 .00001319,0.00000323,0.00003825,-0.00003949,-0.00000839,0.00000205,-0.
 00000870,-0.00000912,-0.00003235,0.00005378,0.00001460,0.00000399,-0.0
 0002766,0.00000889,0.00000612,-0.00000111,-0.00000195,-0.00000252,0.00
 000099,0.00000090,0.00000334,-0.00000210,-0.00000128,0.00000275,0.0000
 0080,-0.00000217,0.00000657,0.00000488,0.00000184,-0.00000069,-0.00000
 096,-0.00000117,0.00000094,0.00000058,0.00000036,0.00000066,0.00000010
 ,-0.00000008,0.00000156,-0.00000023,-0.00000040,-0.00000186,-0.0000003
 0,0.00000050,0.00002901,-0.00001675,-0.00001231,0.00000532,-0.00001762
 ,0.00001415,-0.00001081,0.00000132,0.00001511,0.00001420,-0.00000116,0
 .00000056,0.00000328,0.00000392,-0.00000472,0.00159512,0.00140547,0.00
 204481,-0.00545632,-0.05150082,-0.01178122,0.01209556,0.00322843,0.022
 45612,0.00488241,0.04691283,0.00005851,-0.00059768,-0.00038380,0.00048
 601,0.00217986,-0.00014491,0.00181525,0.00035741,0.00003652,0.00000217
 ,0.00008536,-0.00009319,-0.00000252,-0.00004132,-0.00001033,0.00000980
 ,0.00000712,-0.00000615,-0.00000169,0.00000550,0.00000163,-0.00000833,
 0.00000205,-0.00001401,-0.00000285,-0.00004005,0.00000034,-0.00000591,
 -0.00001880,0.00000381,0.00006621,-0.00006932,0.00001134,-0.00001764,0
 .00003895,0.00001368,-0.00000151,-0.00000270,0.00000444,0.00000433,0.0
 0000061,-0.00000357,-0.00000188,0.00000367,0.00000176,-0.00000372,-0.0
 0000130,0.00000090,-0.00000342,-0.00000334,0.00000018,0.00000129,-0.00
 000003,0.00000226,-0.00000007,-0.00000015,-0.00000060,-0.00000048,-0.0
 0000029,0.00000035,-0.00000114,0.,0.00000042,0.00000089,-0.00000196,-0
 .00000040,-0.00001629,-0.00002555,0.00008246,-0.00003815,-0.00004221,-
 0.00005412,0.00001671,-0.00000097,0.00000601,-0.00000823,0.00000269,0.
 00000199,-0.00001939,-0.00000450,0.00002327,0.00120727,0.00109194,0.01
 325976,-0.10991833,-0.01333569,-0.26528488,-0.00656553,-0.00258208,-0.
 01299454,0.11898234,0.01224270,0.27761950,-0.00191623,-0.00025973,-0.0
 0086431,0.00307348,0.00720010,-0.00348219,0.00076500,-0.00206311,0.001
 22537,0.00047329,-0.00121153,0.00086632,0.00001593,-0.00008099,-0.0002
 7558,0.00002430,0.00002139,0.00004329,-0.00002130,0.00002476,0.0000344
 0,-0.00000747,-0.00006476,-0.00005620,-0.00001092,0.00080593,-0.000055
 67,-0.00003642,-0.00002970,0.00010728,0.00027709,-0.00051357,0.0001754
 0,0.00014444,0.00000727,-0.00006060,-0.00010039,0.00003623,0.00000823,
 -0.00000377,-0.00001987,-0.00000486,-0.00003389,0.00000374,0.00000402,
 -0.00001719,-0.00000279,0.00000667,-0.00003700,-0.00001327,-0.00000435
 ,0.00001523,0.00002123,0.00001054,-0.00001620,-0.00000931,0.00000078,-
 0.00000978,-0.00000107,0.00000020,-0.00001623,0.00000254,0.00000593,0.
 00002076,-0.00000522,-0.00000510,-0.00003463,0.00010240,-0.00020318,-0
 .00001331,-0.00003372,-0.00019069,0.00002271,-0.00002174,0.00004452,-0
 .00002431,-0.00000436,0.00001269,-0.00005506,-0.00010330,0.00008810,-0
 .02753230,0.02883435,0.02250494,-0.06011326,0.04333483,0.02389513,0.00
 296561,-0.00503118,-0.00427209,0.00565367,-0.01236221,-0.00603368,0.07
 654817,0.00011534,-0.00011827,-0.00053833,-0.00110962,-0.00124329,0.00
 261741,-0.00119574,0.00066357,0.00011621,-0.00020470,0.00004145,-0.000
 19389,0.00000137,0.00001038,0.00004530,-0.00000353,-0.00000156,-0.0000
 0582,0.00000663,-0.00000729,-0.00000757,-0.00000861,0.00001009,0.00001
 943,0.00005627,-0.00006429,0.00003035,0.00001505,-0.00000603,-0.000027
 22,-0.00014483,0.00017518,-0.00001983,-0.00002776,0.00004463,0.0000522
 0,0.00002035,-0.00000756,-0.00000338,0.00000042,0.00000534,-0.00000269
 ,0.00000838,0.00000069,-0.00000041,0.00000106,0.00000453,-0.00000051,0
 .00000117,0.00000170,-0.00000109,-0.00000213,-0.00000371,-0.00000067,0
 .00000375,0.00000195,0.00000014,0.00000207,0.00000003,0.00000051,0.000
 00245,-0.00000114,-0.00000049,-0.00000422,0.00000068,0.00000218,0.0000
 5177,-0.00004650,0.00007809,0.00005795,-0.00000627,-0.00002638,0.00002
 864,0.00000072,0.00000513,0.00000755,0.00001362,-0.00003584,0.00001939
 ,0.00002759,0.00000082,0.00638438,0.00544498,0.00109685,0.05032988,-0.
 24572459,-0.11017549,0.00446734,-0.01786131,-0.01271349,-0.00031671,-0
 .00043247,0.00075008,-0.05856335,0.25907713,0.00046878,0.00012110,-0.0
 0000992,0.00046462,-0.00337254,0.00190349,-0.00161497,0.00086497,-0.00
 008577,-0.00016111,0.00034793,-0.00017959,-0.00000480,0.00000493,0.000
 06405,-0.00000391,-0.00000024,-0.00001327,0.00000637,-0.00000535,-0.00
 000754,-0.00000214,0.00001412,0.00000979,-0.00003072,-0.00019683,0.000
 00244,0.00000295,0.00001535,-0.00002180,-0.00003497,0.00008389,-0.0000
 4027,-0.00004410,0.00001009,0.00000313,0.00002381,-0.00000831,-0.00000
 247,0.00000063,0.00000462,0.00000286,0.00000749,-0.00000140,-0.0000010
 7,0.00000482,0.00000032,0.00000007,0.00000625,0.00000208,0.00000198,-0
 .00000370,-0.00000498,-0.00000269,0.00000393,0.00000223,-0.00000037,0.
 00000227,0.00000036,-0.00000031,0.00000365,-0.00000053,-0.00000145,-0.
 00000501,0.00000156,-0.00000014,0.00002422,-0.00004170,0.00002730,0.00
 001710,0.00000025,0.00003144,0.00000604,0.00000590,-0.00003192,-0.0000
 0390,0.00000993,-0.00001741,0.00001610,0.00002453,-0.00001730,0.006725
 38,-0.00043670,-0.00080994,0.02709432,-0.10761381,-0.11139162,-0.00506
 163,0.01574790,0.01050749,0.00561751,-0.02451803,-0.01208015,-0.033525
 29,0.11893837,0.11216097\\-0.00000106,0.00000123,0.00000369,-0.0000010
 7,-0.00000355,0.00000280,-0.00000224,-0.00000212,0.00000493,-0.0000003
 9,-0.00000245,0.00000111,0.00000275,0.00000259,-0.00000662,0.00000236,
 0.00000269,-0.00000801,0.00000252,0.00000337,-0.00000503,0.00000220,0.
 00000454,-0.00000263,0.00000171,-0.00000105,-0.00000484,0.00000428,-0.
 00000075,-0.00000775,0.00000166,-0.00000408,-0.00000481,-0.00000014,0.
 00000056,-0.00000238,-0.00000226,0.00000050,0.00000165,-0.00000175,0.0
 0000168,0.00000408,-0.00000044,0.00000401,0.00000102,0.00000095,0.0000
 0502,-0.00000189,0.00000165,0.00000157,-0.00000100,-0.00000262,-0.0000
 0179,0.00000573,-0.00000272,0.00000127,0.00000635,-0.00000067,0.000005
 65,0.00000128,0.00000174,0.00000651,-0.00000445,0.00000090,0.00000360,
 -0.00000364,0.00000169,-0.00000838,-0.00000099,-0.00000197,0.00000336,
 0.00000445,-0.00000247,0.00000507,0.00000527,-0.00000144,0.00000490,0.
 00000337,-0.00000299,0.00000247,0.00000752,-0.00000044,-0.00000533,-0.
 00000072,0.00000027,-0.00000729,0.00000042,0.00000104,-0.00000927,-0.0
 0000197,-0.00000013,-0.00000558,0.00000029,-0.00000094,-0.00000894,0.0
 0000275\\\@


 FOR THE NATURE OF THE CHEMICAL BOND
 IS THE PROBLEM AT THE HEART OF ALL CHEMISTRY.

                     -- BRYCE CRAWFORD, JR., 1953
 Job cpu time:       0 days 19 hours 54 minutes 55.4 seconds.
 Elapsed time:       0 days  1 hours 14 minutes 44.4 seconds.
 File lengths (MBytes):  RWF=   1130 Int=      0 D2E=      0 Chk=     43 Scr=      1
 Normal termination of Gaussian 16 at Sun Feb  7 11:09:22 2021.
