 Entering Gaussian System, Link 0=g16
 Initial command:
 /apps/gaussian/16/A.03/g16/l1.exe "/beegfs/scratch/user/q/tla25/Gau-95603.inp" -scrdir="/beegfs/scratch/user/q/tla25/"
 Entering Link 1 = /apps/gaussian/16/A.03/g16/l1.exe PID=     95604.
  
 Copyright (c) 1988,1990,1992,1993,1995,1998,2003,2009,2016,
            Gaussian, Inc.  All Rights Reserved.
  
 This is part of the Gaussian(R) 16 program.  It is based on
 the Gaussian(R) 09 system (copyright 2009, Gaussian, Inc.),
 the Gaussian(R) 03 system (copyright 2003, Gaussian, Inc.),
 the Gaussian(R) 98 system (copyright 1998, Gaussian, Inc.),
 the Gaussian(R) 94 system (copyright 1995, Gaussian, Inc.),
 the Gaussian 92(TM) system (copyright 1992, Gaussian, Inc.),
 the Gaussian 90(TM) system (copyright 1990, Gaussian, Inc.),
 the Gaussian 88(TM) system (copyright 1988, Gaussian, Inc.),
 the Gaussian 86(TM) system (copyright 1986, Carnegie Mellon
 University), and the Gaussian 82(TM) system (copyright 1983,
 Carnegie Mellon University). Gaussian is a federally registered
 trademark of Gaussian, Inc.
  
 This software contains proprietary and confidential information,
 including trade secrets, belonging to Gaussian, Inc.
  
 This software is provided under written license and may be
 used, copied, transmitted, or stored only in accord with that
 written license.
  
 The following legend is applicable only to US Government
 contracts under FAR:
  
                    RESTRICTED RIGHTS LEGEND
  
 Use, reproduction and disclosure by the US Government is
 subject to restrictions as set forth in subparagraphs (a)
 and (c) of the Commercial Computer Software - Restricted
 Rights clause in FAR 52.227-19.
  
 Gaussian, Inc.
 340 Quinnipiac St., Bldg. 40, Wallingford CT 06492
  
  
 ---------------------------------------------------------------
 Warning -- This program may not be used in any manner that
 competes with the business of Gaussian, Inc. or will provide
 assistance to any competitor of Gaussian, Inc.  The licensee
 of this program is prohibited from giving any competitor of
 Gaussian, Inc. access to this program.  By using this program,
 the user acknowledges that Gaussian, Inc. is engaged in the
 business of creating and licensing software in the field of
 computational chemistry and represents and warrants to the
 licensee that it is not a competitor of Gaussian, Inc. and that
 it will not use this program in any manner prohibited above.
 ---------------------------------------------------------------
  

 Cite this work as:
 Gaussian 16, Revision A.03,
 M. J. Frisch, G. W. Trucks, H. B. Schlegel, G. E. Scuseria, 
 M. A. Robb, J. R. Cheeseman, G. Scalmani, V. Barone, 
 G. A. Petersson, H. Nakatsuji, X. Li, M. Caricato, A. V. Marenich, 
 J. Bloino, B. G. Janesko, R. Gomperts, B. Mennucci, H. P. Hratchian, 
 J. V. Ortiz, A. F. Izmaylov, J. L. Sonnenberg, D. Williams-Young, 
 F. Ding, F. Lipparini, F. Egidi, J. Goings, B. Peng, A. Petrone, 
 T. Henderson, D. Ranasinghe, V. G. Zakrzewski, J. Gao, N. Rega, 
 G. Zheng, W. Liang, M. Hada, M. Ehara, K. Toyota, R. Fukuda, 
 J. Hasegawa, M. Ishida, T. Nakajima, Y. Honda, O. Kitao, H. Nakai, 
 T. Vreven, K. Throssell, J. A. Montgomery, Jr., J. E. Peralta, 
 F. Ogliaro, M. J. Bearpark, J. J. Heyd, E. N. Brothers, K. N. Kudin, 
 V. N. Staroverov, T. A. Keith, R. Kobayashi, J. Normand, 
 K. Raghavachari, A. P. Rendell, J. C. Burant, S. S. Iyengar, 
 J. Tomasi, M. Cossi, J. M. Millam, M. Klene, C. Adamo, R. Cammi, 
 J. W. Ochterski, R. L. Martin, K. Morokuma, O. Farkas, 
 J. B. Foresman, and D. J. Fox, Gaussian, Inc., Wallingford CT, 2016.
 
 ******************************************
 Gaussian 16:  ES64L-G16RevA.03 25-Dec-2016
                 6-Feb-2021 
 ******************************************
 %nprocshared=16
 Will use up to   16 processors via shared memory.
 %mem=48GB
 ----------------------------------------------------------------------
 # wB97XD def2tzvp, opt=(ts, noeigen, calcfc, maxcycles=70, maxstep=8),
  freq=noraman, scrf=(iefpcm, solvent=water)
 ----------------------------------------------------------------------
 1/5=1,6=70,8=8,10=4,11=1,18=20,26=3,38=1/1,3;
 2/9=110,12=2,17=6,18=5,40=1/2;
 3/5=44,7=101,11=2,25=1,30=1,70=2201,71=2,72=1,74=-58,140=1/1,2,3;
 4//1;
 5/5=2,38=5,53=1/2;
 8/6=4,10=90,11=11/1;
 11/6=1,8=1,9=11,15=111,16=1/1,2,10;
 10/6=1,13=1/2;
 6/7=2,8=2,9=2,10=2,28=1/1;
 7/10=1,18=20,25=1/1,2,3,16;
 1/5=1,6=70,8=8,10=4,11=1,18=20,26=3/3(2);
 2/9=110/2;
 99//99;
 2/9=110/2;
 3/5=44,7=101,11=2,25=1,30=1,70=2205,71=1,72=1,74=-58/1,2,3;
 4/5=5,16=3,69=1/1;
 5/5=2,38=5,53=1/2;
 7//1,2,3,16;
 1/5=1,6=70,8=8,11=1,18=20,26=3/3(-5);
 2/9=110/2;
 6/7=2,8=2,9=2,10=2,19=2,28=1/1;
 99/9=1/99;
 ------------------------
 1_iteration/TS-135-1.out
 ------------------------
 Symbolic Z-matrix:
 Charge =  0 Multiplicity = 1
 C                    -0.4432   -0.89378  -0.8517 
 C                     0.98582  -1.08053  -0.9033 
 O                     1.4829   -2.04426  -1.49134 
 C                    -1.22462  -0.01252  -0.12873 
 C                    -0.78192  -1.52856   2.17565 
 H                    -0.44318  -1.58742   3.2091 
 H                    -1.75759  -2.0003    2.09038 
 H                    -0.07422  -2.047     1.53012 
 N                    -0.8766   -0.14078   1.74113 
 H                    -1.61762   0.36229   2.21774 
 H                    -0.00824   0.35362   1.9118 
 C                    -2.71406  -0.21079  -0.15231 
 C                    -3.63518   0.83284  -0.126 
 C                    -4.99912   0.58012  -0.13019 
 C                    -5.47283  -0.72078  -0.15082 
 C                    -4.56726  -1.77117  -0.16429 
 C                    -3.20627  -1.52047  -0.1612 
 H                    -3.29758   1.85808  -0.10897 
 H                    -5.69142   1.41203  -0.11785 
 H                    -6.53739  -0.91614  -0.15278 
 H                    -4.91862  -2.79489  -0.17272 
 H                    -2.52078  -2.35598  -0.16035 
 Br                   -0.70721   1.95747  -0.20606 
 H                    -0.97659  -1.66988  -1.37958 
 N                     1.77952  -0.16468  -0.23501 
 C                     3.17358  -0.16119  -0.1118 
 C                     3.95127  -1.31886  -0.14507 
 C                     5.32428  -1.23246   0.03324 
 C                     5.94466  -0.01162   0.25321 
 C                     5.16923   1.13894   0.29635 
 C                     3.79935   1.06726   0.11364 
 H                     1.34441   0.72408  -0.04324 
 H                     3.47939  -2.27344  -0.31325 
 H                     5.91437  -2.14033   0.00381 
 H                     7.01657   0.04323   0.39164 
 H                     5.63206   2.10255   0.46908 
 H                     3.20265   1.97185   0.14514 
 
 Add virtual bond connecting atoms N9         and C4         Dist= 3.60D+00.

 GradGradGradGradGradGradGradGradGradGradGradGradGradGradGradGradGradGrad
 Berny optimization.
 Initialization pass.
                           ----------------------------
                           !    Initial Parameters    !
                           ! (Angstroms and Degrees)  !
 --------------------------                            --------------------------
 ! Name  Definition              Value          Derivative Info.                !
 --------------------------------------------------------------------------------
 ! R1    R(1,2)                  1.4421         calculate D2E/DX2 analytically  !
 ! R2    R(1,4)                  1.382          calculate D2E/DX2 analytically  !
 ! R3    R(1,24)                 1.0796         calculate D2E/DX2 analytically  !
 ! R4    R(2,3)                  1.2336         calculate D2E/DX2 analytically  !
 ! R5    R(2,25)                 1.384          calculate D2E/DX2 analytically  !
 ! R6    R(4,9)                  1.9063         calculate D2E/DX2 analytically  !
 ! R7    R(4,12)                 1.5028         calculate D2E/DX2 analytically  !
 ! R8    R(4,23)                 2.0383         calculate D2E/DX2 analytically  !
 ! R9    R(5,6)                  1.0891         calculate D2E/DX2 analytically  !
 ! R10   R(5,7)                  1.0871         calculate D2E/DX2 analytically  !
 ! R11   R(5,8)                  1.0892         calculate D2E/DX2 analytically  !
 ! R12   R(5,9)                  1.4573         calculate D2E/DX2 analytically  !
 ! R13   R(9,10)                 1.0146         calculate D2E/DX2 analytically  !
 ! R14   R(9,11)                 1.0137         calculate D2E/DX2 analytically  !
 ! R15   R(12,13)                1.3922         calculate D2E/DX2 analytically  !
 ! R16   R(12,17)                1.3991         calculate D2E/DX2 analytically  !
 ! R17   R(13,14)                1.3872         calculate D2E/DX2 analytically  !
 ! R18   R(13,18)                1.0795         calculate D2E/DX2 analytically  !
 ! R19   R(14,15)                1.3846         calculate D2E/DX2 analytically  !
 ! R20   R(14,19)                1.0824         calculate D2E/DX2 analytically  !
 ! R21   R(15,16)                1.3869         calculate D2E/DX2 analytically  !
 ! R22   R(15,20)                1.0823         calculate D2E/DX2 analytically  !
 ! R23   R(16,17)                1.3839         calculate D2E/DX2 analytically  !
 ! R24   R(16,21)                1.0824         calculate D2E/DX2 analytically  !
 ! R25   R(17,22)                1.0807         calculate D2E/DX2 analytically  !
 ! R26   R(25,26)                1.3995         calculate D2E/DX2 analytically  !
 ! R27   R(25,32)                1.008          calculate D2E/DX2 analytically  !
 ! R28   R(26,27)                1.395          calculate D2E/DX2 analytically  !
 ! R29   R(26,31)                1.397          calculate D2E/DX2 analytically  !
 ! R30   R(27,28)                1.3872         calculate D2E/DX2 analytically  !
 ! R31   R(27,33)                1.078          calculate D2E/DX2 analytically  !
 ! R32   R(28,29)                1.387          calculate D2E/DX2 analytically  !
 ! R33   R(28,34)                1.0832         calculate D2E/DX2 analytically  !
 ! R34   R(29,30)                1.3881         calculate D2E/DX2 analytically  !
 ! R35   R(29,35)                1.0822         calculate D2E/DX2 analytically  !
 ! R36   R(30,31)                1.3839         calculate D2E/DX2 analytically  !
 ! R37   R(30,36)                1.0829         calculate D2E/DX2 analytically  !
 ! R38   R(31,37)                1.0841         calculate D2E/DX2 analytically  !
 ! A1    A(2,1,4)              131.4218         calculate D2E/DX2 analytically  !
 ! A2    A(2,1,24)             112.2718         calculate D2E/DX2 analytically  !
 ! A3    A(4,1,24)             115.7757         calculate D2E/DX2 analytically  !
 ! A4    A(1,2,3)              121.1675         calculate D2E/DX2 analytically  !
 ! A5    A(1,2,25)             117.7311         calculate D2E/DX2 analytically  !
 ! A6    A(3,2,25)             121.071          calculate D2E/DX2 analytically  !
 ! A7    A(1,4,9)              111.531          calculate D2E/DX2 analytically  !
 ! A8    A(1,4,12)             117.9093         calculate D2E/DX2 analytically  !
 ! A9    A(1,4,23)             116.9318         calculate D2E/DX2 analytically  !
 ! A10   A(9,4,12)             100.8046         calculate D2E/DX2 analytically  !
 ! A11   A(9,4,23)              93.2045         calculate D2E/DX2 analytically  !
 ! A12   A(12,4,23)            112.2419         calculate D2E/DX2 analytically  !
 ! A13   A(6,5,7)              109.2759         calculate D2E/DX2 analytically  !
 ! A14   A(6,5,8)              109.5458         calculate D2E/DX2 analytically  !
 ! A15   A(6,5,9)              110.7686         calculate D2E/DX2 analytically  !
 ! A16   A(7,5,8)              109.2758         calculate D2E/DX2 analytically  !
 ! A17   A(7,5,9)              109.363          calculate D2E/DX2 analytically  !
 ! A18   A(8,5,9)              108.5892         calculate D2E/DX2 analytically  !
 ! A19   A(4,9,5)              111.6173         calculate D2E/DX2 analytically  !
 ! A20   A(4,9,10)             107.1027         calculate D2E/DX2 analytically  !
 ! A21   A(4,9,11)             106.7811         calculate D2E/DX2 analytically  !
 ! A22   A(5,9,10)             112.3075         calculate D2E/DX2 analytically  !
 ! A23   A(5,9,11)             111.0139         calculate D2E/DX2 analytically  !
 ! A24   A(10,9,11)            107.7421         calculate D2E/DX2 analytically  !
 ! A25   A(4,12,13)            123.8175         calculate D2E/DX2 analytically  !
 ! A26   A(4,12,17)            118.182          calculate D2E/DX2 analytically  !
 ! A27   A(13,12,17)           117.9723         calculate D2E/DX2 analytically  !
 ! A28   A(12,13,14)           120.9248         calculate D2E/DX2 analytically  !
 ! A29   A(12,13,18)           120.3515         calculate D2E/DX2 analytically  !
 ! A30   A(14,13,18)           118.7223         calculate D2E/DX2 analytically  !
 ! A31   A(13,14,15)           120.5048         calculate D2E/DX2 analytically  !
 ! A32   A(13,14,19)           119.265          calculate D2E/DX2 analytically  !
 ! A33   A(15,14,19)           120.2302         calculate D2E/DX2 analytically  !
 ! A34   A(14,15,16)           119.2303         calculate D2E/DX2 analytically  !
 ! A35   A(14,15,20)           120.4054         calculate D2E/DX2 analytically  !
 ! A36   A(16,15,20)           120.3639         calculate D2E/DX2 analytically  !
 ! A37   A(15,16,17)           120.3253         calculate D2E/DX2 analytically  !
 ! A38   A(15,16,21)           120.2937         calculate D2E/DX2 analytically  !
 ! A39   A(17,16,21)           119.3804         calculate D2E/DX2 analytically  !
 ! A40   A(12,17,16)           121.0347         calculate D2E/DX2 analytically  !
 ! A41   A(12,17,22)           120.0345         calculate D2E/DX2 analytically  !
 ! A42   A(16,17,22)           118.9299         calculate D2E/DX2 analytically  !
 ! A43   A(2,25,26)            127.9833         calculate D2E/DX2 analytically  !
 ! A44   A(2,25,32)            115.3284         calculate D2E/DX2 analytically  !
 ! A45   A(26,25,32)           114.2706         calculate D2E/DX2 analytically  !
 ! A46   A(25,26,27)           123.445          calculate D2E/DX2 analytically  !
 ! A47   A(25,26,31)           117.5557         calculate D2E/DX2 analytically  !
 ! A48   A(27,26,31)           118.9391         calculate D2E/DX2 analytically  !
 ! A49   A(26,27,28)           119.8021         calculate D2E/DX2 analytically  !
 ! A50   A(26,27,33)           119.638          calculate D2E/DX2 analytically  !
 ! A51   A(28,27,33)           120.5595         calculate D2E/DX2 analytically  !
 ! A52   A(27,28,29)           121.1922         calculate D2E/DX2 analytically  !
 ! A53   A(27,28,34)           118.9137         calculate D2E/DX2 analytically  !
 ! A54   A(29,28,34)           119.8934         calculate D2E/DX2 analytically  !
 ! A55   A(28,29,30)           118.9885         calculate D2E/DX2 analytically  !
 ! A56   A(28,29,35)           120.5263         calculate D2E/DX2 analytically  !
 ! A57   A(30,29,35)           120.485          calculate D2E/DX2 analytically  !
 ! A58   A(29,30,31)           120.393          calculate D2E/DX2 analytically  !
 ! A59   A(29,30,36)           120.2497         calculate D2E/DX2 analytically  !
 ! A60   A(31,30,36)           119.3567         calculate D2E/DX2 analytically  !
 ! A61   A(26,31,30)           120.6824         calculate D2E/DX2 analytically  !
 ! A62   A(26,31,37)           119.4645         calculate D2E/DX2 analytically  !
 ! A63   A(30,31,37)           119.8532         calculate D2E/DX2 analytically  !
 ! D1    D(4,1,2,3)            170.6022         calculate D2E/DX2 analytically  !
 ! D2    D(4,1,2,25)            -7.415          calculate D2E/DX2 analytically  !
 ! D3    D(24,1,2,3)            -0.5151         calculate D2E/DX2 analytically  !
 ! D4    D(24,1,2,25)         -178.5323         calculate D2E/DX2 analytically  !
 ! D5    D(2,1,4,9)            -55.2758         calculate D2E/DX2 analytically  !
 ! D6    D(2,1,4,12)          -171.19           calculate D2E/DX2 analytically  !
 ! D7    D(2,1,4,23)            50.2598         calculate D2E/DX2 analytically  !
 ! D8    D(24,1,4,9)           115.5939         calculate D2E/DX2 analytically  !
 ! D9    D(24,1,4,12)           -0.3203         calculate D2E/DX2 analytically  !
 ! D10   D(24,1,4,23)         -138.8705         calculate D2E/DX2 analytically  !
 ! D11   D(1,2,25,26)          178.002          calculate D2E/DX2 analytically  !
 ! D12   D(1,2,25,32)          -20.8184         calculate D2E/DX2 analytically  !
 ! D13   D(3,2,25,26)           -0.0171         calculate D2E/DX2 analytically  !
 ! D14   D(3,2,25,32)          161.1624         calculate D2E/DX2 analytically  !
 ! D15   D(1,4,9,5)            -43.8918         calculate D2E/DX2 analytically  !
 ! D16   D(1,4,9,10)          -167.1982         calculate D2E/DX2 analytically  !
 ! D17   D(1,4,9,11)            77.6004         calculate D2E/DX2 analytically  !
 ! D18   D(12,4,9,5)            82.0924         calculate D2E/DX2 analytically  !
 ! D19   D(12,4,9,10)          -41.214          calculate D2E/DX2 analytically  !
 ! D20   D(12,4,9,11)         -156.4154         calculate D2E/DX2 analytically  !
 ! D21   D(23,4,9,5)          -164.5394         calculate D2E/DX2 analytically  !
 ! D22   D(23,4,9,10)           72.1541         calculate D2E/DX2 analytically  !
 ! D23   D(23,4,9,11)          -43.0473         calculate D2E/DX2 analytically  !
 ! D24   D(1,4,12,13)         -145.0095         calculate D2E/DX2 analytically  !
 ! D25   D(1,4,12,17)           36.9653         calculate D2E/DX2 analytically  !
 ! D26   D(9,4,12,13)           93.3969         calculate D2E/DX2 analytically  !
 ! D27   D(9,4,12,17)          -84.6283         calculate D2E/DX2 analytically  !
 ! D28   D(23,4,12,13)          -4.6236         calculate D2E/DX2 analytically  !
 ! D29   D(23,4,12,17)         177.3512         calculate D2E/DX2 analytically  !
 ! D30   D(6,5,9,4)            171.868          calculate D2E/DX2 analytically  !
 ! D31   D(6,5,9,10)           -67.8331         calculate D2E/DX2 analytically  !
 ! D32   D(6,5,9,11)            52.8612         calculate D2E/DX2 analytically  !
 ! D33   D(7,5,9,4)            -67.6344         calculate D2E/DX2 analytically  !
 ! D34   D(7,5,9,10)            52.6645         calculate D2E/DX2 analytically  !
 ! D35   D(7,5,9,11)           173.3589         calculate D2E/DX2 analytically  !
 ! D36   D(8,5,9,4)             51.5331         calculate D2E/DX2 analytically  !
 ! D37   D(8,5,9,10)           171.832          calculate D2E/DX2 analytically  !
 ! D38   D(8,5,9,11)           -67.4737         calculate D2E/DX2 analytically  !
 ! D39   D(4,12,13,14)        -179.0425         calculate D2E/DX2 analytically  !
 ! D40   D(4,12,13,18)           1.3946         calculate D2E/DX2 analytically  !
 ! D41   D(17,12,13,14)         -1.0134         calculate D2E/DX2 analytically  !
 ! D42   D(17,12,13,18)        179.4237         calculate D2E/DX2 analytically  !
 ! D43   D(4,12,17,16)         179.1053         calculate D2E/DX2 analytically  !
 ! D44   D(4,12,17,22)          -0.5624         calculate D2E/DX2 analytically  !
 ! D45   D(13,12,17,16)          0.963          calculate D2E/DX2 analytically  !
 ! D46   D(13,12,17,22)       -178.7047         calculate D2E/DX2 analytically  !
 ! D47   D(12,13,14,15)          0.4771         calculate D2E/DX2 analytically  !
 ! D48   D(12,13,14,19)       -179.4798         calculate D2E/DX2 analytically  !
 ! D49   D(18,13,14,15)       -179.953          calculate D2E/DX2 analytically  !
 ! D50   D(18,13,14,19)          0.0901         calculate D2E/DX2 analytically  !
 ! D51   D(13,14,15,16)          0.1421         calculate D2E/DX2 analytically  !
 ! D52   D(13,14,15,20)        179.9214         calculate D2E/DX2 analytically  !
 ! D53   D(19,14,15,16)       -179.9014         calculate D2E/DX2 analytically  !
 ! D54   D(19,14,15,20)         -0.1221         calculate D2E/DX2 analytically  !
 ! D55   D(14,15,16,17)         -0.1932         calculate D2E/DX2 analytically  !
 ! D56   D(14,15,16,21)        179.5248         calculate D2E/DX2 analytically  !
 ! D57   D(20,15,16,17)       -179.9725         calculate D2E/DX2 analytically  !
 ! D58   D(20,15,16,21)         -0.2545         calculate D2E/DX2 analytically  !
 ! D59   D(15,16,17,12)         -0.3716         calculate D2E/DX2 analytically  !
 ! D60   D(15,16,17,22)        179.2997         calculate D2E/DX2 analytically  !
 ! D61   D(21,16,17,12)        179.9078         calculate D2E/DX2 analytically  !
 ! D62   D(21,16,17,22)         -0.4209         calculate D2E/DX2 analytically  !
 ! D63   D(2,25,26,27)         -28.0996         calculate D2E/DX2 analytically  !
 ! D64   D(2,25,26,31)         154.7576         calculate D2E/DX2 analytically  !
 ! D65   D(32,25,26,27)        170.5551         calculate D2E/DX2 analytically  !
 ! D66   D(32,25,26,31)         -6.5877         calculate D2E/DX2 analytically  !
 ! D67   D(25,26,27,28)       -177.6537         calculate D2E/DX2 analytically  !
 ! D68   D(25,26,27,33)          2.5864         calculate D2E/DX2 analytically  !
 ! D69   D(31,26,27,28)         -0.5482         calculate D2E/DX2 analytically  !
 ! D70   D(31,26,27,33)        179.6919         calculate D2E/DX2 analytically  !
 ! D71   D(25,26,31,30)        177.5207         calculate D2E/DX2 analytically  !
 ! D72   D(25,26,31,37)         -2.4812         calculate D2E/DX2 analytically  !
 ! D73   D(27,26,31,30)          0.2449         calculate D2E/DX2 analytically  !
 ! D74   D(27,26,31,37)       -179.757          calculate D2E/DX2 analytically  !
 ! D75   D(26,27,28,29)          0.3762         calculate D2E/DX2 analytically  !
 ! D76   D(26,27,28,34)       -179.9459         calculate D2E/DX2 analytically  !
 ! D77   D(33,27,28,29)       -179.8662         calculate D2E/DX2 analytically  !
 ! D78   D(33,27,28,34)         -0.1883         calculate D2E/DX2 analytically  !
 ! D79   D(27,28,29,30)          0.1103         calculate D2E/DX2 analytically  !
 ! D80   D(27,28,29,35)        179.957          calculate D2E/DX2 analytically  !
 ! D81   D(34,28,29,30)       -179.5645         calculate D2E/DX2 analytically  !
 ! D82   D(34,28,29,35)          0.2822         calculate D2E/DX2 analytically  !
 ! D83   D(28,29,30,31)         -0.4185         calculate D2E/DX2 analytically  !
 ! D84   D(28,29,30,36)        179.8583         calculate D2E/DX2 analytically  !
 ! D85   D(35,29,30,31)        179.7347         calculate D2E/DX2 analytically  !
 ! D86   D(35,29,30,36)          0.0115         calculate D2E/DX2 analytically  !
 ! D87   D(29,30,31,26)          0.2418         calculate D2E/DX2 analytically  !
 ! D88   D(29,30,31,37)       -179.7563         calculate D2E/DX2 analytically  !
 ! D89   D(36,30,31,26)        179.9675         calculate D2E/DX2 analytically  !
 ! D90   D(36,30,31,37)         -0.0306         calculate D2E/DX2 analytically  !
 --------------------------------------------------------------------------------
 Trust Radius=8.00D-02 FncErr=1.00D-07 GrdErr=1.00D-06 EigMax=2.50D+02 EigMin=1.00D-04
 Number of steps in this run=     70 maximum allowed number of steps=    222.
 Search for a saddle point of order  1.
 GradGradGradGradGradGradGradGradGradGradGradGradGradGradGradGradGradGrad

                          Input orientation:                          
 ---------------------------------------------------------------------
 Center     Atomic      Atomic             Coordinates (Angstroms)
 Number     Number       Type             X           Y           Z
 ---------------------------------------------------------------------
      1          6           0       -0.443200   -0.893780   -0.851700
      2          6           0        0.985820   -1.080530   -0.903300
      3          8           0        1.482900   -2.044260   -1.491340
      4          6           0       -1.224620   -0.012520   -0.128730
      5          6           0       -0.781920   -1.528560    2.175650
      6          1           0       -0.443180   -1.587420    3.209100
      7          1           0       -1.757590   -2.000300    2.090380
      8          1           0       -0.074220   -2.047000    1.530120
      9          7           0       -0.876600   -0.140780    1.741130
     10          1           0       -1.617620    0.362290    2.217740
     11          1           0       -0.008240    0.353620    1.911800
     12          6           0       -2.714060   -0.210790   -0.152310
     13          6           0       -3.635180    0.832840   -0.126000
     14          6           0       -4.999120    0.580120   -0.130190
     15          6           0       -5.472830   -0.720780   -0.150820
     16          6           0       -4.567260   -1.771170   -0.164290
     17          6           0       -3.206270   -1.520470   -0.161200
     18          1           0       -3.297580    1.858080   -0.108970
     19          1           0       -5.691420    1.412030   -0.117850
     20          1           0       -6.537390   -0.916140   -0.152780
     21          1           0       -4.918620   -2.794890   -0.172720
     22          1           0       -2.520780   -2.355980   -0.160350
     23         35           0       -0.707210    1.957470   -0.206060
     24          1           0       -0.976590   -1.669880   -1.379580
     25          7           0        1.779520   -0.164680   -0.235010
     26          6           0        3.173580   -0.161190   -0.111800
     27          6           0        3.951270   -1.318860   -0.145070
     28          6           0        5.324280   -1.232460    0.033240
     29          6           0        5.944660   -0.011620    0.253210
     30          6           0        5.169230    1.138940    0.296350
     31          6           0        3.799350    1.067260    0.113640
     32          1           0        1.344410    0.724080   -0.043240
     33          1           0        3.479390   -2.273440   -0.313250
     34          1           0        5.914370   -2.140330    0.003810
     35          1           0        7.016570    0.043230    0.391640
     36          1           0        5.632060    2.102550    0.469080
     37          1           0        3.202650    1.971850    0.145140
 ---------------------------------------------------------------------
                    Distance matrix (angstroms):
                    1          2          3          4          5
     1  C    0.000000
     2  C    1.442094   0.000000
     3  O    2.332939   1.233554   0.000000
     4  C    1.381999   2.574228   3.649019   0.000000
     5  C    3.111676   3.578487   4.340757   2.793658   0.000000
     6  H    4.119616   4.383014   5.100257   3.772541   1.089141
     7  H    3.407028   4.163460   4.830261   3.026512   1.087079
     8  H    2.671915   2.824762   3.399096   2.866062   1.089187
     9  N    2.734522   3.368197   4.431629   1.906291   1.457294
    10  H    3.518300   4.312832   5.400183   2.408496   2.067723
    11  H    3.063026   3.312058   4.422068   2.403623   2.052023
    12  C    2.472332   3.874215   4.771696   1.502764   3.299861
    13  C    3.700891   5.061504   6.027985   2.554494   4.360607
    14  C    4.842454   6.258991   7.124372   3.820743   5.248638
    15  C    5.081175   6.512281   7.206301   4.306902   5.298076
    16  C    4.272027   5.644450   6.200006   3.777215   4.456790
    17  C    2.916177   4.279939   4.902239   2.490362   3.367255
    18  H    4.033840   5.254893   6.323938   2.792257   4.797642
    19  H    5.779196   7.170448   8.081045   4.688471   6.165258
    20  H    6.134178   7.562340   8.209108   5.389122   6.238756
    21  H    4.909645   6.191542   6.578880   4.624841   4.922471
    22  H    2.632932   3.804601   4.230621   2.678215   3.027401
    23  Br   2.935333   3.547103   4.739448   2.038272   4.222621
    24  H    1.079580   2.103623   2.490330   2.091169   3.563359
    25  N    2.419169   1.383963   2.280169   3.009868   3.772589
    26  C    3.763673   2.501590   2.882270   4.400745   4.769498
    27  C    4.471173   3.070115   2.903704   5.338223   5.275680
    28  C    5.844797   4.440994   4.211836   6.663526   6.477907
    29  C    6.542460   5.202901   5.204074   7.179447   7.158475
    30  C    6.078597   4.885297   5.188220   6.510597   6.787010
    31  C    4.772504   3.682814   4.198030   5.144409   5.654927
    32  H    2.542957   2.030987   3.127280   2.673912   3.810399
    33  H    4.192863   2.826497   2.329462   5.222405   4.990815
    34  H    6.534867   5.122170   4.677887   7.450525   7.066219
    35  H    7.620502   6.269741   6.206829   8.257791   8.152893
    36  H    6.901539   5.796807   6.185047   7.200344   7.565480
    37  H    4.743179   3.915429   4.665270   4.859367   5.679141
                    6          7          8          9         10
     6  H    0.000000
     7  H    1.774733   0.000000
     8  H    1.779415   1.774769   0.000000
     9  N    2.106076   2.087087   2.078945   0.000000
    10  H    2.482634   2.370157   2.942717   1.014567   0.000000
    11  H    2.374826   2.938206   2.431668   1.013710   1.638224
    12  C    4.283816   3.024374   3.629186   2.639370   2.673525
    13  C    5.212429   4.057631   4.869974   3.470428   3.128112
    14  C    6.050263   4.700746   5.823489   4.584398   4.122471
    15  C    6.110442   4.523622   5.807703   5.004119   4.652501
    16  C    5.331187   3.609748   4.809835   4.462036   4.350413
    17  C    4.358678   2.720023   3.598268   3.309043   3.424609
    18  H    5.570337   4.700618   5.322247   3.644099   3.236237
    19  H    6.899951   5.656438   6.799532   5.389760   4.811734
    20  H    6.992299   5.390145   6.773741   6.019354   5.608733
    21  H    5.737966   3.968010   5.189144   5.200485   5.155452
    22  H    4.032406   2.403072   2.989785   3.350532   3.722902
    23  Br   4.929429   4.694771   4.410304   2.867559   3.041094
    24  H    4.620315   3.572081   3.069665   3.476633   4.181070
    25  N    4.338949   4.613901   3.177289   3.310691   4.223061
    26  C    5.113068   5.705117   4.098827   4.453956   5.353166
    27  C    5.534778   6.168685   4.420522   5.315445   6.278668
    28  C    6.593609   7.414465   5.661089   6.523769   7.450184
    29  C    7.212831   8.164233   6.480755   6.982849   7.822229
    30  C    6.885949   7.813719   6.258288   6.346427   7.096214
    31  C    5.884578   6.648083   5.168131   5.096331   5.853869
    32  H    4.372211   4.647256   3.488102   2.977389   3.743868
    33  H    5.316402   5.768709   4.009667   5.267197   6.271562
    34  H    7.141291   7.951877   6.180740   7.289290   8.239871
    35  H    8.139101   9.167749   7.479606   8.009814   8.830950
    36  H    7.617882   8.606330   7.134858   7.000950   7.657949
    37  H    5.945446   6.645744   5.367234   4.863195   5.488293
                   11         12         13         14         15
    11  H    0.000000
    12  C    3.449720   0.000000
    13  C    4.187717   1.392235   0.000000
    14  C    5.397213   2.418166   1.387162   0.000000
    15  C    5.938896   2.805513   2.406514   1.384618   0.000000
    16  C    5.441465   2.422660   2.766064   2.390864   1.386924
    17  C    4.246992   1.399147   2.392336   2.761838   2.403520
    18  H    4.143268   2.150023   1.079528   2.128114   3.374016
    19  H    6.126846   3.391077   2.136270   1.082361   2.144236
    20  H    6.964523   3.887849   3.388580   2.146061   1.082339
    21  H    6.194366   3.396774   3.848354   3.376238   2.146989
    22  H    4.236578   2.153895   3.378112   3.842364   3.374695
    23  Br   2.747039   2.954943   3.137548   4.508142   5.466919
    24  H    3.983144   2.579523   3.860463   4.775377   4.756765
    25  N    2.841393   4.494577   5.506896   6.820240   7.274126
    26  C    3.805780   5.887988   6.880953   8.206272   8.664587
    27  C    4.765042   6.756811   7.885709   9.149635   9.443061
    28  C    5.872002   8.105131   9.195800  10.482592  10.810795
    29  C    6.190423   8.670499   9.624461  10.966470  11.446625
    30  C    5.480201   8.010576   8.819848  10.192623  10.812583
    31  C    4.270878   6.642940   7.442084   8.815318   9.446711
    32  H    2.406052   4.166180   4.981465   6.345759   6.969502
    33  H    4.900597   6.529874   7.765381   8.947706   9.087320
    34  H    6.703545   8.842924  10.002524  11.248247  11.476383
    35  H    7.194108   9.749132  10.693513  12.038993  12.524499
    36  H    6.078913   8.683052   9.372728  10.756343  11.474931
    37  H    4.006192   6.313466   6.937347   8.323566   9.088553
                   16         17         18         19         20
    16  C    0.000000
    17  C    1.383891   0.000000
    18  H    3.845335   3.380187   0.000000
    19  H    3.376189   3.844139   2.435058   0.000000
    20  H    2.147701   3.385505   4.265511   2.477350   0.000000
    21  H    1.082371   2.134578   4.927673   4.277664   2.480023
    22  H    2.128403   1.080729   4.285366   4.924699   4.266890
    23  Br   5.366981   4.282917   2.594094   5.014742   6.500113
    24  H    3.792110   2.545240   4.409983   5.772327   5.744185
    25  N    6.547322   5.167370   5.466662   7.636405   8.351194
    26  C    7.906668   6.523233   6.778892   9.003515   9.740358
    27  C    8.530551   7.160397   7.914548  10.021974  10.496391
    28  C    9.908168   8.537625   9.160138  11.329687  11.867345
    29  C   10.666339   9.283743   9.436416  11.728718  12.521364
    30  C   10.172520   8.799478   8.506957  10.871976  11.894117
    31  C    8.839349   7.473326   7.144324   9.499851  10.528677
    32  H    6.417848   5.075491   4.778948   7.069777   8.051403
    33  H    8.063687   6.729646   7.939679   9.885577  10.109594
    34  H   10.489476   9.143168  10.042909  12.137892  12.512773
    35  H   11.738238  10.356507  10.484559  12.791646  13.598773
    36  H   10.928540   9.572858   8.951669  11.359688  12.553673
    37  H    8.630032   7.305094   6.506190   8.915551  10.163544
                   21         22         23         24         25
    21  H    0.000000
    22  H    2.437710   0.000000
    23  Br   6.349962   4.679421   0.000000
    24  H    4.273378   2.083693   3.821961   0.000000
    25  N    7.196316   4.827002   3.269279   3.342426   0.000000
    26  C    8.510217   6.102884   4.422458   4.594271   1.399499
    27  C    8.991906   6.554638   5.695568   5.092252   2.461040
    28  C   10.363426   7.927467   6.827283   6.472122   3.711797
    29  C   11.222248   8.793789   6.952382   7.302022   4.196448
    30  C   10.837886   8.459273   5.954406   6.961991   3.670409
    31  C    9.539455   7.192891   4.604755   5.703617   2.391432
    32  H    7.185086   4.943701   2.399355   3.592199   1.007964
    33  H    8.415357   6.002685   5.953126   4.621374   2.709714
    34  H   10.854183   8.439503   7.789822   7.044176   4.588814
    35  H   12.280969   9.849972   7.979871   8.364363   5.278504
    36  H   11.649621   9.313618   6.376771   7.830902   4.525278
    37  H    9.422201   7.181997   3.925628   5.749175   2.595106
                   26         27         28         29         30
    26  C    0.000000
    27  C    1.395030   0.000000
    28  C    2.407107   1.387233   0.000000
    29  C    2.799016   2.416838   1.386978   0.000000
    30  C    2.416515   2.778319   2.390984   1.388143   0.000000
    31  C    1.396961   2.404907   2.760541   2.405372   1.383869
    32  H    2.033290   3.313562   4.435455   4.668130   3.862212
    33  H    2.143759   1.078044   2.146465   3.393267   3.856360
    34  H    3.382646   2.133246   1.083190   2.143484   3.375563
    35  H    3.881213   3.396971   2.149344   1.082203   2.149959
    36  H    3.392059   3.861124   3.377422   2.148030   1.082863
    37  H    2.148656   3.387245   3.844664   3.385920   2.141037
                   31         32         33         34         35
    31  C    0.000000
    32  H    2.483770   0.000000
    33  H    3.383029   3.690010   0.000000
    34  H    3.843697   5.393662   2.459141   0.000000
    35  H    3.387687   5.729405   4.286662   2.476528   0.000000
    36  H    2.134711   4.532835   4.939162   4.277640   2.482673
    37  H    1.084125   2.246213   4.278924   4.927821   4.280925
                   36         37
    36  H    0.000000
    37  H    2.454395   0.000000
 Stoichiometry    C16H17BrN2O
 Framework group  C1[X(C16H17BrN2O)]
 Deg. of freedom   105
 Full point group                 C1      NOp   1
 Largest Abelian subgroup         C1      NOp   1
 Largest concise Abelian subgroup C1      NOp   1
                         Standard orientation:                         
 ---------------------------------------------------------------------
 Center     Atomic      Atomic             Coordinates (Angstroms)
 Number     Number       Type             X           Y           Z
 ---------------------------------------------------------------------
      1          6           0       -0.443199   -0.893780   -0.851701
      2          6           0        0.985821   -1.080531   -0.903301
      3          8           0        1.482900   -2.044261   -1.491341
      4          6           0       -1.224619   -0.012520   -0.128731
      5          6           0       -0.781920   -1.528560    2.175649
      6          1           0       -0.443180   -1.587420    3.209099
      7          1           0       -1.757590   -2.000300    2.090379
      8          1           0       -0.074220   -2.047000    1.530119
      9          7           0       -0.876599   -0.140780    1.741129
     10          1           0       -1.617619    0.362290    2.217739
     11          1           0       -0.008239    0.353620    1.911799
     12          6           0       -2.714059   -0.210790   -0.152311
     13          6           0       -3.635179    0.832840   -0.126001
     14          6           0       -4.999119    0.580120   -0.130191
     15          6           0       -5.472829   -0.720780   -0.150821
     16          6           0       -4.567260   -1.771170   -0.164291
     17          6           0       -3.206270   -1.520470   -0.161201
     18          1           0       -3.297579    1.858080   -0.108971
     19          1           0       -5.691419    1.412030   -0.117851
     20          1           0       -6.537389   -0.916140   -0.152781
     21          1           0       -4.918620   -2.794890   -0.172721
     22          1           0       -2.520780   -2.355980   -0.160351
     23         35           0       -0.707209    1.957470   -0.206061
     24          1           0       -0.976590   -1.669880   -1.379581
     25          7           0        1.779521   -0.164681   -0.235011
     26          6           0        3.173581   -0.161191   -0.111801
     27          6           0        3.951271   -1.318861   -0.145071
     28          6           0        5.324281   -1.232461    0.033239
     29          6           0        5.944661   -0.011621    0.253209
     30          6           0        5.169231    1.138939    0.296349
     31          6           0        3.799351    1.067259    0.113639
     32          1           0        1.344411    0.724079   -0.043241
     33          1           0        3.479390   -2.273441   -0.313251
     34          1           0        5.914370   -2.140331    0.003809
     35          1           0        7.016571    0.043229    0.391639
     36          1           0        5.632061    2.102549    0.469079
     37          1           0        3.202651    1.971849    0.145139
 ---------------------------------------------------------------------
 Rotational constants (GHZ):           0.6206675           0.1456132           0.1293883
 Standard basis: def2TZVP (5D, 7F)
 There are   841 symmetry adapted cartesian basis functions of A   symmetry.
 There are   739 symmetry adapted basis functions of A   symmetry.
   739 basis functions,  1219 primitive gaussians,   841 cartesian basis functions
    85 alpha electrons       85 beta electrons
       nuclear repulsion energy      1924.4310524145 Hartrees.
 NAtoms=   37 NActive=   37 NUniq=   37 SFac= 1.00D+00 NAtFMM=   60 NAOKFM=F Big=F
 Integral buffers will be    131072 words long.
 Raffenetti 2 integral format.
 Two-electron integral symmetry is turned on.
 Nuclear repulsion after empirical dispersion term =     1924.4021378447 Hartrees.
 Force inversion solution in PCM.
 ------------------------------------------------------------------------------
 Polarizable Continuum Model (PCM)
 =================================
 Model                : PCM.
 Atomic radii         : UFF (Universal Force Field).
 Polarization charges : Total charges.
 Charge compensation  : None.
 Solution method      : Matrix inversion.
 Cavity type          : Scaled VdW (van der Waals Surface) (Alpha=1.100).
 Cavity algorithm     : GePol (No added spheres)
                        Default sphere list used, NSphG=   37.
                        Lebedev-Laikov grids with approx.  5.0 points / Ang**2.
                        Smoothing algorithm: York/Karplus (Gamma=1.0000).
                        Polarization charges: spherical gaussians, with
                                              point-specific exponents (IZeta= 3).
                        Self-potential: point-specific (ISelfS= 7).
                        Self-field    : sphere-specific E.n sum rule (ISelfD= 2).
 1st derivatives      : Analytical E(r).r(x)/FMM algorithm (CHGder, D1EAlg=3).
                        Cavity 1st derivative terms included.
 2nd derivatives      : Analytical E(r).r(xy)/FMM algorithm (CHGder, D2EAlg=3).
                        Cavity 2nd derivative terms included.
 Solvent              : Water, Eps=  78.355300 Eps(inf)=   1.777849
 ------------------------------------------------------------------------------
 One-electron integrals computed using PRISM.
   1 Symmetry operations used in ECPInt.
 ECPInt:  NShTT=   43071 NPrTT=  136516 LenC2=   36803 LenP2D=   82277.
 LDataN:  DoStor=T MaxTD1= 6 Len=  172
 NBasis=   739 RedAO= T EigKep=  7.40D-06  NBF=   739
 NBsUse=   739 1.00D-06 EigRej= -1.00D+00 NBFU=   739
 ExpMin= 9.52D-02 ExpMax= 5.65D+05 ExpMxC= 5.46D+03 IAcc=3 IRadAn=         5 AccDes= 0.00D+00
 Harris functional with IExCor= 4639 and IRadAn=       5 diagonalized for initial guess.
 HarFok:  IExCor= 4639 AccDes= 0.00D+00 IRadAn=         5 IDoV= 1 UseB2=F ITyADJ=14
 ICtDFT=  3500011 ScaDFX=  1.000000  1.000000  1.000000  1.000000
 FoFCou: FMM=F IPFlag=           0 FMFlag=      100000 FMFlg1=           0
         NFxFlg=           0 DoJE=T BraDBF=F KetDBF=T FulRan=T
         wScrn=  0.000000 ICntrl=       500 IOpCl=  0 I1Cent=   200000004 NGrid=           0
         NMat0=    1 NMatS0=      1 NMatT0=    0 NMatD0=    1 NMtDS0=    0 NMtDT0=    0
 Petite list used in FoFCou.
 Requested convergence on RMS density matrix=1.00D-08 within 128 cycles.
 Requested convergence on MAX density matrix=1.00D-06.
 Requested convergence on             energy=1.00D-06.
 No special actions if energy rises.
 Inv3:  Mode=1 IEnd=    23385792.
 Iteration    1 A*A^-1 deviation from unit magnitude is 4.88D-15 for   2782.
 Iteration    1 A*A^-1 deviation from orthogonality  is 1.91D-15 for   2223    680.
 Iteration    1 A^-1*A deviation from unit magnitude is 4.88D-15 for   2782.
 Iteration    1 A^-1*A deviation from orthogonality  is 1.78D-15 for   2134   1014.
 Error on total polarization charges =  0.01910
 SCF Done:  E(RwB97XD) =  -3378.87892182     A.U. after   15 cycles
            NFock= 15  Conv=0.70D-08     -V/T= 2.0022
 DoSCS=F DFT=T ScalE2(SS,OS)=  1.000000  1.000000
 Range of M.O.s used for correlation:     1   739
 NBasis=   739 NAE=    85 NBE=    85 NFC=     0 NFV=     0
 NROrb=    739 NOA=    85 NOB=    85 NVA=   654 NVB=   654

 **** Warning!!: The largest alpha MO coefficient is  0.40866400D+02

   1 Symmetry operations used in ECPInt.
 ECPInt:  NShTT=   43071 NPrTT=  136516 LenC2=   36803 LenP2D=   82277.
 LDataN:  DoStor=T MaxTD1= 7 Len=  274
 Number of processors reduced to  12 by ecpmxn.
 Symmetrizing basis deriv contribution to polar:
 IMax=3 JMax=2 DiffMx= 0.00D+00
 G2DrvN: will do    38 centers at a time, making    1 passes.
 Calling FoFCou, ICntrl=  3107 FMM=F I1Cent=   0 AccDes= 0.00D+00.
 NEqPCM:  Using equilibrium solvation (IEInf=0, Eps=  78.3553, EpsInf=   1.7778)
 G2PCM: DoFxE=T DoFxN=T DoGrad=T DoDP/DQ/DG/TGxP=FFFF NFrqRd=   0 IEInf=0 SqF1=F DoCFld=F IF1Alg=4.
 End of G2Drv F.D. properties file   721 does not exist.
 End of G2Drv F.D. properties file   722 does not exist.
 End of G2Drv F.D. properties file   788 does not exist.
          IDoAtm=1111111111111111111111111111111111111
 NEqPCM:  Using equilibrium solvation (IEInf=0, Eps=  78.3553, EpsInf=   1.7778)
          Differentiating once with respect to nuclear coordinates.
 CalDSu exits because no D1Ps are significant.
          There are   114 degrees of freedom in the 1st order CPHF.  IDoFFX=6 NUNeed=     0.
    108 vectors produced by pass  0 Test12= 5.56D-14 1.00D-09 XBig12= 1.21D-01 9.66D-02.
 AX will form   108 AO Fock derivatives at one time.
    108 vectors produced by pass  1 Test12= 5.56D-14 1.00D-09 XBig12= 3.17D-02 3.01D-02.
    108 vectors produced by pass  2 Test12= 5.56D-14 1.00D-09 XBig12= 8.67D-04 3.21D-03.
    108 vectors produced by pass  3 Test12= 5.56D-14 1.00D-09 XBig12= 1.31D-05 3.51D-04.
    108 vectors produced by pass  4 Test12= 5.56D-14 1.00D-09 XBig12= 1.47D-07 2.99D-05.
    108 vectors produced by pass  5 Test12= 5.56D-14 1.00D-09 XBig12= 1.38D-09 3.01D-06.
    108 vectors produced by pass  6 Test12= 5.56D-14 1.00D-09 XBig12= 1.08D-11 2.46D-07.
     54 vectors produced by pass  7 Test12= 5.56D-14 1.00D-09 XBig12= 7.82D-14 1.92D-08.
     18 vectors produced by pass  8 Test12= 5.56D-14 1.00D-09 XBig12= 5.88D-15 5.02D-09.
     10 vectors produced by pass  9 Test12= 5.56D-14 1.00D-09 XBig12= 3.68D-15 4.09D-09.
      5 vectors produced by pass 10 Test12= 5.56D-14 1.00D-09 XBig12= 2.71D-15 4.12D-09.
      5 vectors produced by pass 11 Test12= 5.56D-14 1.00D-09 XBig12= 2.86D-15 3.83D-09.
      5 vectors produced by pass 12 Test12= 5.56D-14 1.00D-09 XBig12= 3.48D-15 3.60D-09.
      5 vectors produced by pass 13 Test12= 5.56D-14 1.00D-09 XBig12= 1.22D-15 2.12D-09.
      5 vectors produced by pass 14 Test12= 5.56D-14 1.00D-09 XBig12= 2.21D-15 2.88D-09.
      5 vectors produced by pass 15 Test12= 5.56D-14 1.00D-09 XBig12= 1.43D-15 2.08D-09.
      1 vectors produced by pass 16 Test12= 5.56D-14 1.00D-09 XBig12= 2.46D-16 1.03D-09.
 InvSVY:  IOpt=1 It=  1 EMax= 3.89D-16
 Solved reduced A of dimension   869 with   114 vectors.
 End of Minotr F.D. properties file   721 does not exist.
 End of Minotr F.D. properties file   722 does not exist.
 End of Minotr F.D. properties file   788 does not exist.

 **********************************************************************

            Population analysis using the SCF density.

 **********************************************************************

 Orbital symmetries:
       Occupied  (A) (A) (A) (A) (A) (A) (A) (A) (A) (A) (A) (A)
                 (A) (A) (A) (A) (A) (A) (A) (A) (A) (A) (A) (A)
                 (A) (A) (A) (A) (A) (A) (A) (A) (A) (A) (A) (A)
                 (A) (A) (A) (A) (A) (A) (A) (A) (A) (A) (A) (A)
                 (A) (A) (A) (A) (A) (A) (A) (A) (A) (A) (A) (A)
                 (A) (A) (A) (A) (A) (A) (A) (A) (A) (A) (A) (A)
                 (A) (A) (A) (A) (A) (A) (A) (A) (A) (A) (A) (A)
                 (A)
       Virtual   (A) (A) (A) (A) (A) (A) (A) (A) (A) (A) (A) (A)
                 (A) (A) (A) (A) (A) (A) (A) (A) (A) (A) (A) (A)
                 (A) (A) (A) (A) (A) (A) (A) (A) (A) (A) (A) (A)
                 (A) (A) (A) (A) (A) (A) (A) (A) (A) (A) (A) (A)
                 (A) (A) (A) (A) (A) (A) (A) (A) (A) (A) (A) (A)
                 (A) (A) (A) (A) (A) (A) (A) (A) (A) (A) (A) (A)
                 (A) (A) (A) (A) (A) (A) (A) (A) (A) (A) (A) (A)
                 (A) (A) (A) (A) (A) (A) (A) (A) (A) (A) (A) (A)
                 (A) (A) (A) (A) (A) (A) (A) (A) (A) (A) (A) (A)
                 (A) (A) (A) (A) (A) (A) (A) (A) (A) (A) (A) (A)
                 (A) (A) (A) (A) (A) (A) (A) (A) (A) (A) (A) (A)
                 (A) (A) (A) (A) (A) (A) (A) (A) (A) (A) (A) (A)
                 (A) (A) (A) (A) (A) (A) (A) (A) (A) (A) (A) (A)
                 (A) (A) (A) (A) (A) (A) (A) (A) (A) (A) (A) (A)
                 (A) (A) (A) (A) (A) (A) (A) (A) (A) (A) (A) (A)
                 (A) (A) (A) (A) (A) (A) (A) (A) (A) (A) (A) (A)
                 (A) (A) (A) (A) (A) (A) (A) (A) (A) (A) (A) (A)
                 (A) (A) (A) (A) (A) (A) (A) (A) (A) (A) (A) (A)
                 (A) (A) (A) (A) (A) (A) (A) (A) (A) (A) (A) (A)
                 (A) (A) (A) (A) (A) (A) (A) (A) (A) (A) (A) (A)
                 (A) (A) (A) (A) (A) (A) (A) (A) (A) (A) (A) (A)
                 (A) (A) (A) (A) (A) (A) (A) (A) (A) (A) (A) (A)
                 (A) (A) (A) (A) (A) (A) (A) (A) (A) (A) (A) (A)
                 (A) (A) (A) (A) (A) (A) (A) (A) (A) (A) (A) (A)
                 (A) (A) (A) (A) (A) (A) (A) (A) (A) (A) (A) (A)
                 (A) (A) (A) (A) (A) (A) (A) (A) (A) (A) (A) (A)
                 (A) (A) (A) (A) (A) (A) (A) (A) (A) (A) (A) (A)
                 (A) (A) (A) (A) (A) (A) (A) (A) (A) (A) (A) (A)
                 (A) (A) (A) (A) (A) (A) (A) (A) (A) (A) (A) (A)
                 (A) (A) (A) (A) (A) (A) (A) (A) (A) (A) (A) (A)
                 (A) (A) (A) (A) (A) (A) (A) (A) (A) (A) (A) (A)
                 (A) (A) (A) (A) (A) (A) (A) (A) (A) (A) (A) (A)
                 (A) (A) (A) (A) (A) (A) (A) (A) (A) (A) (A) (A)
                 (A) (A) (A) (A) (A) (A) (A) (A) (A) (A) (A) (A)
                 (A) (A) (A) (A) (A) (A) (A) (A) (A) (A) (A) (A)
                 (A) (A) (A) (A) (A) (A) (A) (A) (A) (A) (A) (A)
                 (A) (A) (A) (A) (A) (A) (A) (A) (A) (A) (A) (A)
                 (A) (A) (A) (A) (A) (A) (A) (A) (A) (A) (A) (A)
                 (A) (A) (A) (A) (A) (A) (A) (A) (A) (A) (A) (A)
                 (A) (A) (A) (A) (A) (A) (A) (A) (A) (A) (A) (A)
                 (A) (A) (A) (A) (A) (A) (A) (A) (A) (A) (A) (A)
                 (A) (A) (A) (A) (A) (A) (A) (A) (A) (A) (A) (A)
                 (A) (A) (A) (A) (A) (A) (A) (A) (A) (A) (A) (A)
                 (A) (A) (A) (A) (A) (A) (A) (A) (A) (A) (A) (A)
                 (A) (A) (A) (A) (A) (A) (A) (A) (A) (A) (A) (A)
                 (A) (A) (A) (A) (A) (A) (A) (A) (A) (A) (A) (A)
                 (A) (A) (A) (A) (A) (A) (A) (A) (A) (A) (A) (A)
                 (A) (A) (A) (A) (A) (A) (A) (A) (A) (A) (A) (A)
                 (A) (A) (A) (A) (A) (A) (A) (A) (A) (A) (A) (A)
                 (A) (A) (A) (A) (A) (A) (A) (A) (A) (A) (A) (A)
                 (A) (A) (A) (A) (A) (A) (A) (A) (A) (A) (A) (A)
                 (A) (A) (A) (A) (A) (A) (A) (A) (A) (A) (A) (A)
                 (A) (A) (A) (A) (A) (A) (A) (A) (A) (A) (A) (A)
                 (A) (A) (A) (A) (A) (A) (A) (A) (A) (A) (A) (A)
                 (A) (A) (A) (A) (A) (A)
 The electronic state is 1-A.
 Alpha  occ. eigenvalues -- -483.12927 -62.67774 -56.46864 -56.46551 -56.46539
 Alpha  occ. eigenvalues --  -19.20375 -14.50173 -14.46005 -10.40863 -10.38529
 Alpha  occ. eigenvalues --  -10.33621 -10.32166 -10.31981 -10.30062 -10.29914
 Alpha  occ. eigenvalues --  -10.29720 -10.29651 -10.29617 -10.29028 -10.28903
 Alpha  occ. eigenvalues --  -10.28822 -10.28330 -10.28297 -10.25998  -8.81867
 Alpha  occ. eigenvalues --   -6.63921  -6.62941  -6.62906  -2.74310  -2.74048
 Alpha  occ. eigenvalues --   -2.74019  -2.73228  -2.73226  -1.13268  -1.05539
 Alpha  occ. eigenvalues --   -1.03682  -0.98208  -0.95511  -0.92773  -0.86817
 Alpha  occ. eigenvalues --   -0.86074  -0.85400  -0.85102  -0.82789  -0.79686
 Alpha  occ. eigenvalues --   -0.75333  -0.72140  -0.71284  -0.70572  -0.67736
 Alpha  occ. eigenvalues --   -0.65489  -0.64462  -0.62651  -0.61803  -0.59009
 Alpha  occ. eigenvalues --   -0.58228  -0.57508  -0.56020  -0.55548  -0.54100
 Alpha  occ. eigenvalues --   -0.53443  -0.52539  -0.52094  -0.51620  -0.51128
 Alpha  occ. eigenvalues --   -0.50619  -0.49525  -0.48649  -0.48079  -0.46622
 Alpha  occ. eigenvalues --   -0.46055  -0.45277  -0.44598  -0.43969  -0.42930
 Alpha  occ. eigenvalues --   -0.42839  -0.39329  -0.37799  -0.37689  -0.34830
 Alpha  occ. eigenvalues --   -0.34490  -0.34195  -0.33343  -0.30474  -0.27743
 Alpha virt. eigenvalues --    0.01109   0.03042   0.04571   0.05392   0.05775
 Alpha virt. eigenvalues --    0.09074   0.10090   0.12847   0.12906   0.13758
 Alpha virt. eigenvalues --    0.14343   0.15779   0.16061   0.16636   0.17075
 Alpha virt. eigenvalues --    0.17208   0.18051   0.18359   0.18795   0.19158
 Alpha virt. eigenvalues --    0.19820   0.20241   0.21112   0.21647   0.22176
 Alpha virt. eigenvalues --    0.22500   0.23078   0.23338   0.23800   0.24683
 Alpha virt. eigenvalues --    0.25049   0.25924   0.26315   0.27330   0.27783
 Alpha virt. eigenvalues --    0.28127   0.28394   0.28704   0.29327   0.29658
 Alpha virt. eigenvalues --    0.29785   0.30251   0.31095   0.31281   0.31602
 Alpha virt. eigenvalues --    0.31974   0.32192   0.32631   0.33202   0.33436
 Alpha virt. eigenvalues --    0.34324   0.34691   0.35084   0.35513   0.36280
 Alpha virt. eigenvalues --    0.36777   0.37587   0.37722   0.38315   0.38888
 Alpha virt. eigenvalues --    0.39369   0.39714   0.41014   0.41718   0.41903
 Alpha virt. eigenvalues --    0.42250   0.42319   0.42604   0.43096   0.43520
 Alpha virt. eigenvalues --    0.43933   0.44648   0.44955   0.45731   0.46194
 Alpha virt. eigenvalues --    0.46350   0.46735   0.47752   0.48023   0.48697
 Alpha virt. eigenvalues --    0.49296   0.49722   0.49992   0.50140   0.50225
 Alpha virt. eigenvalues --    0.50939   0.51036   0.51407   0.51831   0.52464
 Alpha virt. eigenvalues --    0.53007   0.53515   0.54096   0.54614   0.54835
 Alpha virt. eigenvalues --    0.55078   0.55244   0.56355   0.56527   0.56775
 Alpha virt. eigenvalues --    0.57237   0.57543   0.57751   0.58773   0.59234
 Alpha virt. eigenvalues --    0.59962   0.60375   0.61260   0.62035   0.62798
 Alpha virt. eigenvalues --    0.63079   0.63468   0.64148   0.65934   0.66195
 Alpha virt. eigenvalues --    0.67866   0.68603   0.69203   0.69711   0.69853
 Alpha virt. eigenvalues --    0.70785   0.71423   0.71927   0.72750   0.73411
 Alpha virt. eigenvalues --    0.73867   0.74530   0.75135   0.76300   0.77044
 Alpha virt. eigenvalues --    0.77514   0.78001   0.78618   0.79143   0.79679
 Alpha virt. eigenvalues --    0.79797   0.80333   0.80946   0.81439   0.82468
 Alpha virt. eigenvalues --    0.83206   0.84007   0.84207   0.84421   0.84914
 Alpha virt. eigenvalues --    0.86527   0.86816   0.87988   0.89480   0.90008
 Alpha virt. eigenvalues --    0.90203   0.90454   0.91486   0.91860   0.93073
 Alpha virt. eigenvalues --    0.93932   0.94607   0.95357   0.96334   0.96842
 Alpha virt. eigenvalues --    0.97594   0.97856   0.98841   0.99062   1.00629
 Alpha virt. eigenvalues --    1.01867   1.02264   1.03225   1.03957   1.05401
 Alpha virt. eigenvalues --    1.06646   1.08386   1.09091   1.09578   1.09842
 Alpha virt. eigenvalues --    1.10316   1.10806   1.11565   1.12310   1.12997
 Alpha virt. eigenvalues --    1.14772   1.15523   1.16449   1.17083   1.18565
 Alpha virt. eigenvalues --    1.20228   1.20528   1.21695   1.22010   1.23983
 Alpha virt. eigenvalues --    1.24476   1.24943   1.27567   1.27709   1.28389
 Alpha virt. eigenvalues --    1.29395   1.29903   1.30540   1.30959   1.31623
 Alpha virt. eigenvalues --    1.32137   1.32189   1.32871   1.34116   1.34288
 Alpha virt. eigenvalues --    1.34619   1.35265   1.36135   1.37735   1.38122
 Alpha virt. eigenvalues --    1.38623   1.39989   1.40572   1.41887   1.42951
 Alpha virt. eigenvalues --    1.43858   1.45145   1.46021   1.46404   1.47922
 Alpha virt. eigenvalues --    1.48334   1.49829   1.50102   1.50981   1.51372
 Alpha virt. eigenvalues --    1.52547   1.52654   1.53542   1.54778   1.55134
 Alpha virt. eigenvalues --    1.55763   1.56317   1.56938   1.57371   1.57938
 Alpha virt. eigenvalues --    1.58314   1.58810   1.59423   1.59779   1.60870
 Alpha virt. eigenvalues --    1.61908   1.63114   1.63822   1.64175   1.64455
 Alpha virt. eigenvalues --    1.65218   1.65562   1.65764   1.66514   1.67022
 Alpha virt. eigenvalues --    1.68468   1.68716   1.69072   1.69893   1.70110
 Alpha virt. eigenvalues --    1.70765   1.71141   1.73109   1.73488   1.74081
 Alpha virt. eigenvalues --    1.74467   1.75551   1.75938   1.77223   1.77684
 Alpha virt. eigenvalues --    1.77847   1.78017   1.78645   1.79158   1.80439
 Alpha virt. eigenvalues --    1.81017   1.81597   1.81941   1.82540   1.83561
 Alpha virt. eigenvalues --    1.84200   1.85520   1.86893   1.87401   1.87964
 Alpha virt. eigenvalues --    1.88949   1.90875   1.91420   1.93149   1.93827
 Alpha virt. eigenvalues --    1.94628   1.95353   1.95999   1.97542   1.97609
 Alpha virt. eigenvalues --    1.98852   2.00330   2.01026   2.01347   2.02208
 Alpha virt. eigenvalues --    2.02939   2.05186   2.05614   2.06827   2.07561
 Alpha virt. eigenvalues --    2.08502   2.09474   2.10299   2.10902   2.12105
 Alpha virt. eigenvalues --    2.13069   2.14941   2.16084   2.16903   2.17376
 Alpha virt. eigenvalues --    2.18723   2.19313   2.20159   2.21506   2.21764
 Alpha virt. eigenvalues --    2.23693   2.24135   2.25243   2.26076   2.27004
 Alpha virt. eigenvalues --    2.27963   2.29342   2.29788   2.30993   2.31516
 Alpha virt. eigenvalues --    2.31683   2.33163   2.34016   2.35082   2.36911
 Alpha virt. eigenvalues --    2.38137   2.38477   2.40482   2.42620   2.43885
 Alpha virt. eigenvalues --    2.45314   2.47115   2.48089   2.48881   2.50128
 Alpha virt. eigenvalues --    2.51460   2.53429   2.54673   2.55023   2.56106
 Alpha virt. eigenvalues --    2.57593   2.58977   2.60031   2.61510   2.61895
 Alpha virt. eigenvalues --    2.62969   2.64073   2.64462   2.65276   2.65592
 Alpha virt. eigenvalues --    2.66263   2.67639   2.67888   2.68540   2.68879
 Alpha virt. eigenvalues --    2.69765   2.70619   2.71333   2.73415   2.73760
 Alpha virt. eigenvalues --    2.74321   2.74812   2.75404   2.76031   2.76323
 Alpha virt. eigenvalues --    2.76810   2.77382   2.77801   2.78567   2.79168
 Alpha virt. eigenvalues --    2.79922   2.80215   2.80978   2.82623   2.82806
 Alpha virt. eigenvalues --    2.83894   2.84100   2.84518   2.84919   2.85167
 Alpha virt. eigenvalues --    2.85608   2.86393   2.87592   2.87708   2.88024
 Alpha virt. eigenvalues --    2.89300   2.90223   2.90569   2.91714   2.92124
 Alpha virt. eigenvalues --    2.92532   2.93559   2.93972   2.94634   2.94787
 Alpha virt. eigenvalues --    2.95808   2.96155   2.96671   2.97790   2.98272
 Alpha virt. eigenvalues --    2.99030   3.00038   3.01262   3.02326   3.03244
 Alpha virt. eigenvalues --    3.04805   3.05175   3.06284   3.08844   3.09649
 Alpha virt. eigenvalues --    3.10605   3.11485   3.12019   3.12839   3.14045
 Alpha virt. eigenvalues --    3.14806   3.16015   3.17280   3.18051   3.18891
 Alpha virt. eigenvalues --    3.19323   3.20505   3.21100   3.21640   3.22358
 Alpha virt. eigenvalues --    3.22642   3.22994   3.23117   3.24223   3.25085
 Alpha virt. eigenvalues --    3.25404   3.25928   3.26299   3.27088   3.27956
 Alpha virt. eigenvalues --    3.28355   3.28733   3.29671   3.30833   3.31230
 Alpha virt. eigenvalues --    3.31567   3.33632   3.34033   3.34089   3.35758
 Alpha virt. eigenvalues --    3.36111   3.36242   3.37177   3.38178   3.38328
 Alpha virt. eigenvalues --    3.39229   3.40120   3.40492   3.40914   3.41287
 Alpha virt. eigenvalues --    3.42869   3.43627   3.44357   3.44868   3.46521
 Alpha virt. eigenvalues --    3.46686   3.47731   3.48161   3.48224   3.48571
 Alpha virt. eigenvalues --    3.50101   3.51425   3.51983   3.53102   3.54366
 Alpha virt. eigenvalues --    3.55365   3.55687   3.56160   3.56895   3.57695
 Alpha virt. eigenvalues --    3.58258   3.59614   3.59922   3.60397   3.61401
 Alpha virt. eigenvalues --    3.61717   3.61977   3.63295   3.63728   3.64260
 Alpha virt. eigenvalues --    3.66273   3.67572   3.68859   3.69924   3.71099
 Alpha virt. eigenvalues --    3.72215   3.73963   3.75256   3.76823   3.77525
 Alpha virt. eigenvalues --    3.78873   3.79847   3.80866   3.82035   3.83133
 Alpha virt. eigenvalues --    3.83328   3.86108   3.87009   3.88599   3.90414
 Alpha virt. eigenvalues --    3.91159   3.94081   3.94569   3.95947   3.99030
 Alpha virt. eigenvalues --    4.00158   4.01006   4.03237   4.03659   4.04910
 Alpha virt. eigenvalues --    4.06888   4.08858   4.09891   4.11152   4.12490
 Alpha virt. eigenvalues --    4.14356   4.15128   4.15324   4.16762   4.16798
 Alpha virt. eigenvalues --    4.19998   4.20977   4.21291   4.22231   4.23065
 Alpha virt. eigenvalues --    4.24672   4.25589   4.26641   4.27097   4.27722
 Alpha virt. eigenvalues --    4.29679   4.30051   4.30356   4.31749   4.32057
 Alpha virt. eigenvalues --    4.32970   4.33905   4.34236   4.35338   4.35883
 Alpha virt. eigenvalues --    4.37730   4.38425   4.39576   4.39896   4.40912
 Alpha virt. eigenvalues --    4.42402   4.42581   4.43990   4.44602   4.50887
 Alpha virt. eigenvalues --    4.51775   4.52813   4.57174   4.57397   4.59166
 Alpha virt. eigenvalues --    4.60771   4.65006   4.67496   4.70636   4.72066
 Alpha virt. eigenvalues --    4.74317   4.75251   4.76700   4.77956   4.78732
 Alpha virt. eigenvalues --    4.79103   4.81812   4.87043   4.88460   4.91421
 Alpha virt. eigenvalues --    4.93363   4.93716   4.95585   4.96236   4.96746
 Alpha virt. eigenvalues --    4.98705   4.99613   4.99967   5.02254   5.05954
 Alpha virt. eigenvalues --    5.07851   5.10548   5.11784   5.16008   5.17521
 Alpha virt. eigenvalues --    5.19606   5.21558   5.21912   5.23308   5.24736
 Alpha virt. eigenvalues --    5.27857   5.29831   5.30687   5.33567   5.34925
 Alpha virt. eigenvalues --    5.36013   5.38183   5.40149   5.42285   5.46169
 Alpha virt. eigenvalues --    5.47060   5.48995   5.51980   5.55276   5.57943
 Alpha virt. eigenvalues --    5.58640   5.63519   5.65782   5.69696   5.75670
 Alpha virt. eigenvalues --    5.77988   5.82369   5.88501   5.99024   6.10174
 Alpha virt. eigenvalues --    6.19057   6.22712   6.46756   6.52668   6.71955
 Alpha virt. eigenvalues --    6.90336   6.93890   7.19082   7.23928   7.78280
 Alpha virt. eigenvalues --   22.21793  22.23926  22.50346  22.68202  22.72225
 Alpha virt. eigenvalues --   22.73456  22.74349  22.81141  22.85805  22.87972
 Alpha virt. eigenvalues --   22.92740  22.95842  22.97188  23.36040  23.37218
 Alpha virt. eigenvalues --   23.47143  32.21007  32.84094  44.08217
          Condensed to atoms (all electrons):
               1          2          3          4          5          6
     1  C    6.059009   0.284531  -0.137677   0.113465  -0.016518   0.000442
     2  C    0.284531   4.517834   0.658811   0.041812  -0.000858  -0.000304
     3  O   -0.137677   0.658811   8.099276   0.008352  -0.001062   0.000040
     4  C    0.113465   0.041812   0.008352   5.576821  -0.019131   0.001611
     5  C   -0.016518  -0.000858  -0.001062  -0.019131   4.887108   0.403700
     6  H    0.000442  -0.000304   0.000040   0.001611   0.403700   0.487148
     7  H   -0.005635  -0.000462   0.000004  -0.000601   0.417582  -0.015521
     8  H    0.005746   0.004330   0.001635  -0.006350   0.417641  -0.017281
     9  N   -0.003137  -0.005942   0.000633  -0.098965   0.239358  -0.018557
    10  H    0.006836  -0.000043  -0.000008   0.001546  -0.016233  -0.003136
    11  H   -0.017930   0.002462  -0.000044   0.013301  -0.019264  -0.005664
    12  C   -0.086079  -0.003674  -0.000185  -0.048775   0.007355   0.000245
    13  C    0.024291  -0.000556   0.000036  -0.083215  -0.000989   0.000083
    14  C   -0.001561  -0.000060  -0.000001   0.006808   0.000615  -0.000027
    15  C    0.000020   0.000017   0.000001   0.000404  -0.000278   0.000012
    16  C    0.004625  -0.000161   0.000001  -0.006876   0.002309   0.000015
    17  C   -0.012439   0.002102  -0.000993  -0.035558  -0.005715   0.000187
    18  H    0.002536   0.000013  -0.000000  -0.008624  -0.000105   0.000007
    19  H   -0.000006  -0.000000  -0.000000  -0.000598   0.000001  -0.000000
    20  H   -0.000002  -0.000000  -0.000000   0.000048   0.000001  -0.000000
    21  H    0.000040  -0.000002  -0.000001  -0.000829   0.000019  -0.000001
    22  H   -0.002802   0.001152   0.000691   0.007338  -0.004070   0.000172
    23  Br  -0.119681   0.007582  -0.000451   0.339851   0.004691  -0.000459
    24  H    0.428424  -0.042487   0.020613  -0.060778  -0.000921  -0.000010
    25  N   -0.120894   0.278623  -0.136972   0.014384   0.001623  -0.000216
    26  C    0.009044  -0.041798  -0.016304  -0.004162   0.000168  -0.000023
    27  C    0.006220  -0.017870   0.004493  -0.002165   0.000112   0.000031
    28  C   -0.000508   0.001159  -0.003362   0.000082  -0.000028   0.000002
    29  C    0.000126  -0.000738   0.000303  -0.000037   0.000009  -0.000000
    30  C   -0.000208   0.001347   0.000094   0.000083  -0.000014  -0.000001
    31  C    0.000625   0.002443   0.000964  -0.001175  -0.000193   0.000006
    32  H   -0.028680  -0.017973   0.004335   0.012930  -0.000131   0.000027
    33  H    0.001691  -0.004044   0.024807  -0.001228  -0.000005   0.000011
    34  H   -0.000009  -0.000005  -0.000207   0.000002  -0.000000  -0.000000
    35  H    0.000000   0.000001   0.000002  -0.000000   0.000000  -0.000000
    36  H   -0.000003   0.000018  -0.000000   0.000001   0.000000  -0.000000
    37  H    0.000482  -0.000140  -0.000018  -0.000241   0.000005  -0.000000
               7          8          9         10         11         12
     1  C   -0.005635   0.005746  -0.003137   0.006836  -0.017930  -0.086079
     2  C   -0.000462   0.004330  -0.005942  -0.000043   0.002462  -0.003674
     3  O    0.000004   0.001635   0.000633  -0.000008  -0.000044  -0.000185
     4  C   -0.000601  -0.006350  -0.098965   0.001546   0.013301  -0.048775
     5  C    0.417582   0.417641   0.239358  -0.016233  -0.019264   0.007355
     6  H   -0.015521  -0.017281  -0.018557  -0.003136  -0.005664   0.000245
     7  H    0.495519  -0.023475  -0.032945  -0.005964   0.005201   0.004597
     8  H   -0.023475   0.497456  -0.038601   0.005064  -0.004163  -0.005575
     9  N   -0.032945  -0.038601   6.560122   0.351205   0.345901   0.111361
    10  H   -0.005964   0.005064   0.351205   0.392991  -0.019871  -0.013869
    11  H    0.005201  -0.004163   0.345901  -0.019871   0.409178   0.001069
    12  C    0.004597  -0.005575   0.111361  -0.013869   0.001069   5.666993
    13  C    0.000941  -0.000239   0.006537  -0.000185   0.000402   0.300352
    14  C    0.000128   0.000002  -0.000388   0.000119   0.000022  -0.001963
    15  C   -0.000149  -0.000006  -0.000269   0.000006  -0.000000  -0.092570
    16  C    0.001387  -0.000025   0.001520  -0.000499  -0.000004   0.010173
    17  C   -0.001221  -0.000015  -0.031663  -0.000038   0.000949   0.279824
    18  H   -0.000023  -0.000001   0.001117  -0.000158  -0.000067  -0.066260
    19  H    0.000001  -0.000000   0.000000  -0.000001  -0.000000   0.015658
    20  H    0.000001  -0.000000  -0.000001  -0.000001   0.000000  -0.004105
    21  H    0.000026  -0.000002   0.000061  -0.000004  -0.000001   0.014538
    22  H   -0.002732   0.000135  -0.001386   0.000133  -0.000109  -0.084109
    23  Br   0.000042   0.000855  -0.102856   0.003676   0.001155  -0.088564
    24  H   -0.000293   0.001377   0.001186   0.000108  -0.000415  -0.020125
    25  N    0.000078  -0.000022   0.006487   0.000044   0.002658   0.003622
    26  C    0.000017  -0.000520   0.000238  -0.000012   0.000082   0.000328
    27  C   -0.000011   0.000538   0.000187   0.000001  -0.000283   0.000074
    28  C   -0.000000   0.000006  -0.000009   0.000000  -0.000013  -0.000003
    29  C   -0.000000   0.000001   0.000004  -0.000000   0.000003   0.000001
    30  C    0.000000  -0.000005  -0.000025   0.000001  -0.000002  -0.000006
    31  C    0.000003  -0.000023   0.000130  -0.000009  -0.000095  -0.000053
    32  H   -0.000037   0.000377  -0.004110   0.000160   0.000220   0.002400
    33  H   -0.000001   0.000178   0.000093  -0.000002  -0.000037   0.000043
    34  H    0.000000  -0.000001  -0.000000   0.000000   0.000000  -0.000000
    35  H   -0.000000  -0.000000   0.000000  -0.000000   0.000000   0.000000
    36  H    0.000000   0.000000  -0.000000   0.000000   0.000000  -0.000000
    37  H    0.000000  -0.000002   0.000072  -0.000002  -0.000030   0.000025
              13         14         15         16         17         18
     1  C    0.024291  -0.001561   0.000020   0.004625  -0.012439   0.002536
     2  C   -0.000556  -0.000060   0.000017  -0.000161   0.002102   0.000013
     3  O    0.000036  -0.000001   0.000001   0.000001  -0.000993  -0.000000
     4  C   -0.083215   0.006808   0.000404  -0.006876  -0.035558  -0.008624
     5  C   -0.000989   0.000615  -0.000278   0.002309  -0.005715  -0.000105
     6  H    0.000083  -0.000027   0.000012   0.000015   0.000187   0.000007
     7  H    0.000941   0.000128  -0.000149   0.001387  -0.001221  -0.000023
     8  H   -0.000239   0.000002  -0.000006  -0.000025  -0.000015  -0.000001
     9  N    0.006537  -0.000388  -0.000269   0.001520  -0.031663   0.001117
    10  H   -0.000185   0.000119   0.000006  -0.000499  -0.000038  -0.000158
    11  H    0.000402   0.000022  -0.000000  -0.000004   0.000949  -0.000067
    12  C    0.300352  -0.001963  -0.092570   0.010173   0.279824  -0.066260
    13  C    5.201517   0.420951   0.038973  -0.069945   0.003265   0.450241
    14  C    0.420951   4.961023   0.419020   0.011000  -0.066356  -0.029230
    15  C    0.038973   0.419020   4.980828   0.417597   0.024385   0.008232
    16  C   -0.069945   0.011000   0.417597   4.954724   0.424016  -0.002217
    17  C    0.003265  -0.066356   0.024385   0.424016   5.314468   0.005045
    18  H    0.450241  -0.029230   0.008232  -0.002217   0.005045   0.488929
    19  H   -0.058345   0.453953  -0.058098   0.011534  -0.003957  -0.006429
    20  H    0.011974  -0.057980   0.455289  -0.058961   0.013214  -0.000072
    21  H   -0.003932   0.011050  -0.055878   0.452448  -0.055937   0.000023
    22  H    0.005888  -0.002282   0.007192  -0.017305   0.444215  -0.000027
    23  Br  -0.020344   0.002609   0.000139  -0.000980   0.023104   0.004447
    24  H    0.003074  -0.000309   0.000097   0.001820  -0.003672   0.000075
    25  N   -0.000195   0.000003  -0.000002   0.000015   0.000081  -0.000000
    26  C   -0.000018  -0.000000   0.000000  -0.000000  -0.000017  -0.000001
    27  C    0.000002  -0.000000   0.000000   0.000000  -0.000006   0.000000
    28  C    0.000000  -0.000000   0.000000   0.000000   0.000000  -0.000000
    29  C    0.000000  -0.000000   0.000000  -0.000000  -0.000000   0.000000
    30  C   -0.000000   0.000000  -0.000000  -0.000000   0.000000  -0.000000
    31  C    0.000006  -0.000000   0.000000  -0.000000   0.000001   0.000001
    32  H   -0.000131  -0.000002  -0.000000   0.000005  -0.000110  -0.000007
    33  H    0.000001  -0.000000   0.000000  -0.000000  -0.000010   0.000000
    34  H   -0.000000   0.000000  -0.000000   0.000000   0.000000  -0.000000
    35  H   -0.000000  -0.000000   0.000000  -0.000000  -0.000000  -0.000000
    36  H   -0.000000   0.000000  -0.000000   0.000000   0.000000  -0.000000
    37  H    0.000001  -0.000000   0.000000  -0.000000  -0.000001   0.000001
              19         20         21         22         23         24
     1  C   -0.000006  -0.000002   0.000040  -0.002802  -0.119681   0.428424
     2  C   -0.000000  -0.000000  -0.000002   0.001152   0.007582  -0.042487
     3  O   -0.000000  -0.000000  -0.000001   0.000691  -0.000451   0.020613
     4  C   -0.000598   0.000048  -0.000829   0.007338   0.339851  -0.060778
     5  C    0.000001   0.000001   0.000019  -0.004070   0.004691  -0.000921
     6  H   -0.000000  -0.000000  -0.000001   0.000172  -0.000459  -0.000010
     7  H    0.000001   0.000001   0.000026  -0.002732   0.000042  -0.000293
     8  H   -0.000000  -0.000000  -0.000002   0.000135   0.000855   0.001377
     9  N    0.000000  -0.000001   0.000061  -0.001386  -0.102856   0.001186
    10  H   -0.000001  -0.000001  -0.000004   0.000133   0.003676   0.000108
    11  H   -0.000000   0.000000  -0.000001  -0.000109   0.001155  -0.000415
    12  C    0.015658  -0.004105   0.014538  -0.084109  -0.088564  -0.020125
    13  C   -0.058345   0.011974  -0.003932   0.005888  -0.020344   0.003074
    14  C    0.453953  -0.057980   0.011050  -0.002282   0.002609  -0.000309
    15  C   -0.058098   0.455289  -0.055878   0.007192   0.000139   0.000097
    16  C    0.011534  -0.058961   0.452448  -0.017305  -0.000980   0.001820
    17  C   -0.003957   0.013214  -0.055937   0.444215   0.023104  -0.003672
    18  H   -0.006429  -0.000072   0.000023  -0.000027   0.004447   0.000075
    19  H    0.505403  -0.006622  -0.000039   0.000019   0.000001  -0.000001
    20  H   -0.006622   0.505418  -0.006618  -0.000066   0.000001  -0.000002
    21  H   -0.000039  -0.006618   0.503169  -0.005907   0.000002  -0.000023
    22  H    0.000019  -0.000066  -0.005907   0.460954   0.000725   0.002195
    23  Br   0.000001   0.000001   0.000002   0.000725  35.130594   0.003646
    24  H   -0.000001  -0.000002  -0.000023   0.002195   0.003646   0.511799
    25  N    0.000000  -0.000000   0.000000   0.000105  -0.039978   0.012693
    26  C   -0.000000   0.000000   0.000000  -0.000010   0.008430  -0.000195
    27  C   -0.000000   0.000000  -0.000000   0.000000  -0.000081  -0.000035
    28  C    0.000000  -0.000000  -0.000000   0.000000  -0.000002   0.000003
    29  C   -0.000000   0.000000   0.000000  -0.000000   0.000015   0.000002
    30  C    0.000000  -0.000000  -0.000000   0.000000  -0.000507  -0.000005
    31  C   -0.000000  -0.000000  -0.000000   0.000001  -0.003214   0.000052
    32  H    0.000000   0.000000  -0.000000  -0.000018   0.028231  -0.000736
    33  H   -0.000000   0.000000   0.000000  -0.000001  -0.000020   0.000137
    34  H    0.000000  -0.000000  -0.000000   0.000000  -0.000000  -0.000000
    35  H   -0.000000   0.000000   0.000000  -0.000000   0.000000  -0.000000
    36  H    0.000000  -0.000000   0.000000   0.000000  -0.000004   0.000000
    37  H   -0.000000   0.000000   0.000000  -0.000000   0.001053   0.000003
              25         26         27         28         29         30
     1  C   -0.120894   0.009044   0.006220  -0.000508   0.000126  -0.000208
     2  C    0.278623  -0.041798  -0.017870   0.001159  -0.000738   0.001347
     3  O   -0.136972  -0.016304   0.004493  -0.003362   0.000303   0.000094
     4  C    0.014384  -0.004162  -0.002165   0.000082  -0.000037   0.000083
     5  C    0.001623   0.000168   0.000112  -0.000028   0.000009  -0.000014
     6  H   -0.000216  -0.000023   0.000031   0.000002  -0.000000  -0.000001
     7  H    0.000078   0.000017  -0.000011  -0.000000  -0.000000   0.000000
     8  H   -0.000022  -0.000520   0.000538   0.000006   0.000001  -0.000005
     9  N    0.006487   0.000238   0.000187  -0.000009   0.000004  -0.000025
    10  H    0.000044  -0.000012   0.000001   0.000000  -0.000000   0.000001
    11  H    0.002658   0.000082  -0.000283  -0.000013   0.000003  -0.000002
    12  C    0.003622   0.000328   0.000074  -0.000003   0.000001  -0.000006
    13  C   -0.000195  -0.000018   0.000002   0.000000   0.000000  -0.000000
    14  C    0.000003  -0.000000  -0.000000  -0.000000  -0.000000   0.000000
    15  C   -0.000002   0.000000   0.000000   0.000000   0.000000  -0.000000
    16  C    0.000015  -0.000000   0.000000   0.000000  -0.000000  -0.000000
    17  C    0.000081  -0.000017  -0.000006   0.000000  -0.000000   0.000000
    18  H   -0.000000  -0.000001   0.000000  -0.000000   0.000000  -0.000000
    19  H    0.000000  -0.000000  -0.000000   0.000000  -0.000000   0.000000
    20  H   -0.000000   0.000000   0.000000  -0.000000   0.000000  -0.000000
    21  H    0.000000   0.000000  -0.000000  -0.000000   0.000000  -0.000000
    22  H    0.000105  -0.000010   0.000000   0.000000  -0.000000   0.000000
    23  Br  -0.039978   0.008430  -0.000081  -0.000002   0.000015  -0.000507
    24  H    0.012693  -0.000195  -0.000035   0.000003   0.000002  -0.000005
    25  N    6.676259   0.319204  -0.054316   0.003473   0.000471   0.003048
    26  C    0.319204   4.981691   0.305383   0.046864  -0.115672   0.036603
    27  C   -0.054316   0.305383   5.252190   0.362152   0.057261  -0.102535
    28  C    0.003473   0.046864   0.362152   5.000141   0.389917   0.027209
    29  C    0.000471  -0.115672   0.057261   0.389917   5.061299   0.395028
    30  C    0.003048   0.036603  -0.102535   0.027209   0.395028   4.985386
    31  C   -0.067461   0.337697   0.083108  -0.094588   0.042915   0.395050
    32  H    0.362084  -0.042397   0.006988  -0.000149  -0.000047   0.000277
    33  H   -0.002682  -0.064682   0.438161  -0.039343   0.011519  -0.004700
    34  H   -0.000072   0.015774  -0.061677   0.455791  -0.059101   0.012079
    35  H   -0.000000  -0.005497   0.013880  -0.061260   0.458513  -0.060720
    36  H   -0.000099   0.014813  -0.005381   0.012408  -0.058519   0.457911
    37  H   -0.002175  -0.065145   0.010259  -0.003615   0.009566  -0.038191
              31         32         33         34         35         36
     1  C    0.000625  -0.028680   0.001691  -0.000009   0.000000  -0.000003
     2  C    0.002443  -0.017973  -0.004044  -0.000005   0.000001   0.000018
     3  O    0.000964   0.004335   0.024807  -0.000207   0.000002  -0.000000
     4  C   -0.001175   0.012930  -0.001228   0.000002  -0.000000   0.000001
     5  C   -0.000193  -0.000131  -0.000005  -0.000000   0.000000   0.000000
     6  H    0.000006   0.000027   0.000011  -0.000000  -0.000000  -0.000000
     7  H    0.000003  -0.000037  -0.000001   0.000000  -0.000000   0.000000
     8  H   -0.000023   0.000377   0.000178  -0.000001  -0.000000   0.000000
     9  N    0.000130  -0.004110   0.000093  -0.000000   0.000000  -0.000000
    10  H   -0.000009   0.000160  -0.000002   0.000000  -0.000000   0.000000
    11  H   -0.000095   0.000220  -0.000037   0.000000   0.000000   0.000000
    12  C   -0.000053   0.002400   0.000043  -0.000000   0.000000  -0.000000
    13  C    0.000006  -0.000131   0.000001  -0.000000  -0.000000  -0.000000
    14  C   -0.000000  -0.000002  -0.000000   0.000000  -0.000000   0.000000
    15  C    0.000000  -0.000000   0.000000  -0.000000   0.000000  -0.000000
    16  C   -0.000000   0.000005  -0.000000   0.000000  -0.000000   0.000000
    17  C    0.000001  -0.000110  -0.000010   0.000000  -0.000000   0.000000
    18  H    0.000001  -0.000007   0.000000  -0.000000  -0.000000  -0.000000
    19  H   -0.000000   0.000000  -0.000000   0.000000  -0.000000   0.000000
    20  H   -0.000000   0.000000   0.000000  -0.000000   0.000000  -0.000000
    21  H   -0.000000  -0.000000   0.000000  -0.000000   0.000000   0.000000
    22  H    0.000001  -0.000018  -0.000001   0.000000  -0.000000   0.000000
    23  Br  -0.003214   0.028231  -0.000020  -0.000000   0.000000  -0.000004
    24  H    0.000052  -0.000736   0.000137  -0.000000  -0.000000   0.000000
    25  N   -0.067461   0.362084  -0.002682  -0.000072  -0.000000  -0.000099
    26  C    0.337697  -0.042397  -0.064682   0.015774  -0.005497   0.014813
    27  C    0.083108   0.006988   0.438161  -0.061677   0.013880  -0.005381
    28  C   -0.094588  -0.000149  -0.039343   0.455791  -0.061260   0.012408
    29  C    0.042915  -0.000047   0.011519  -0.059101   0.458513  -0.058519
    30  C    0.395050   0.000277  -0.004700   0.012079  -0.060720   0.457911
    31  C    5.194986  -0.006780   0.012249  -0.004836   0.013673  -0.062653
[...]
 0022,0.00000064,0.00002062,-0.00000952,0.00000482,0.00000416,-0.000001
 62,0.00000603,-0.00000997,0.00002476,0.00002400,-0.00007269,-0.0003553
 5,-0.00002591,0.00001859,-0.00003730,0.00000189,0.00000937,0.00001445,
 -0.00004842,-0.00004004,-0.00001893,0.00001830,0.00002169,-0.00000078,
 0.00001264,0.00000686,0.00000260,0.00002214,-0.00000401,0.00000089,-0.
 00000034,-0.00000736,0.00001128,0.00002931,0.00000092,-0.00001265,-0.0
 0000678,0.00000175,-0.00000355,0.00000725,-0.00000185,-0.00000057,0.00
 000429,0.00000008,-0.00000225,0.00000494,0.00000434,-0.00000003,-0.000
 00893,-0.00001427,-0.00000728,0.00000621,-0.00018432,-0.00006744,0.000
 03025,-0.00003544,-0.00000344,0.00039769,-0.00192161,-0.00007957,0.012
 57906,0.01745919,0.00226234,-0.11212540,-0.11459111,-0.01777556,-0.008
 30215,-0.02786827,-0.00403864,-0.00487880,0.00088778,-0.00144184,-0.00
 080328,0.00073776,0.00008147,-0.00171739,0.00329307,-0.00079844,0.0000
 1846,-0.00011631,0.00014836,0.11802776,-0.00056118,0.00042764,0.000453
 69,0.00173718,-0.00233489,-0.00104319,-0.00376132,0.00125406,-0.001383
 05,0.00002238,-0.00033457,-0.00035196,0.00001178,0.00003676,0.00000033
 ,-0.00000052,-0.00001161,0.00000564,-0.00000309,-0.00000285,0.00000034
 ,0.00000306,0.00000506,-0.00001979,-0.00001322,0.00004296,0.00020150,0
 .00001277,-0.00001182,0.00002161,0.00000020,-0.00001099,-0.00001212,0.
 00002859,0.00003720,0.00001236,-0.00001505,-0.00001500,0.00000116,-0.0
 0000702,-0.00000169,-0.00000217,-0.00001322,0.00000100,-0.00000013,-0.
 00000090,0.00000508,-0.00000778,-0.00001679,-0.00000190,0.00000809,0.0
 0000369,-0.00000022,0.00000223,-0.00000481,0.00000112,0.00000024,-0.00
 000263,-0.00000003,0.00000146,-0.00000304,-0.00000271,-0.00000015,0.00
 000561,0.00000912,0.00000464,0.00001976,0.00011797,0.00003901,0.000026
 35,-0.00000137,0.00001543,-0.00023299,0.00146093,0.00083313,-0.0142188
 8,-0.01780730,-0.00400745,-0.11103031,-0.29503860,-0.03747195,0.001931
 98,0.00428664,0.00034832,0.00065500,0.00192806,-0.00069414,0.00099352,
 0.00022056,0.00027094,0.00382087,-0.00259479,-0.00069992,-0.00003614,-
 0.00004255,-0.00003226,0.12158681,0.30856393,0.00014374,-0.00041412,0.
 00016031,-0.00085232,0.00212999,0.00115837,-0.00092903,-0.00111141,-0.
 00155499,-0.00003011,0.00006739,0.00016847,-0.00001410,-0.00002230,0.0
 0000603,0.00000024,0.00000506,-0.00000696,-0.00000067,0.00000465,0.000
 00028,0.00000488,-0.00000373,0.00001377,0.00000459,-0.00001864,-0.0001
 0508,-0.00000545,0.00000642,-0.00001270,-0.00000683,0.00000740,0.00001
 899,-0.00002340,0.00000488,-0.00002635,0.00000328,0.00000370,-0.000000
 41,0.00000308,0.00000409,0.00000238,0.00000628,-0.00000135,-0.00000016
 ,-0.00000192,-0.00000076,0.00000371,0.00000727,0.00000088,-0.00000443,
 -0.00000153,0.00000097,-0.00000102,0.00000135,-0.00000073,0.00000003,0
 .00000087,0.00000017,-0.00000057,0.00000149,0.00000108,0.00000006,-0.0
 0000023,-0.00000207,-0.00000189,0.00002404,-0.00002139,-0.00001639,-0.
 00000950,-0.00003132,0.00000605,-0.00054037,0.00021445,-0.00432684,-0.
 00094215,-0.00057349,0.00460892,-0.01735439,-0.04099495,-0.04306220,-0
 .00098694,-0.00181473,0.00290211,-0.00093873,-0.00075845,0.00747849,-0
 .00004530,0.00014171,-0.00090414,-0.00042364,-0.00047783,0.00611206,0.
 00007007,0.00008275,-0.00022706,0.02226785,0.04296025,0.03270914,-0.00
 024785,0.00002899,0.00001708,0.00053675,0.00059169,0.00042039,-0.00004
 123,-0.00027348,-0.00016454,0.00007330,-0.00013961,-0.00019916,0.00000
 870,0.00002821,-0.00000154,0.00000069,-0.00000725,0.00000446,-0.000001
 78,-0.00000348,0.00000065,-0.00000072,0.00000375,-0.00001159,0.0000025
 6,0.00001467,0.00010748,0.00000431,-0.00000850,0.00000356,0.00001272,-
 0.00000617,-0.00003007,0.00002171,0.00001131,0.00000763,-0.00001205,-0
 .00000462,0.00000084,-0.00000432,-0.00000527,-0.00000095,-0.00000996,0
 .00000106,-0.00000049,0.00000009,0.00000205,-0.00000379,-0.00001431,-0
 .00000009,0.00000554,0.00000481,-0.00000399,0.00000126,-0.00000305,0.0
 0000092,0.00000005,-0.00000200,-0.00000036,0.00000079,-0.00000237,-0.0
 0000197,-0.00000001,0.00000341,0.00000612,0.00000204,-0.00007022,0.000
 08370,0.00001357,-0.00003951,-0.00000523,0.00000596,-0.00100547,0.0013
 7787,-0.00000493,-0.00453394,-0.00144624,-0.00133743,-0.01242831,0.027
 46437,0.00080570,-0.14387906,0.12845407,0.00165322,0.01164890,-0.01301
 684,-0.00049311,-0.00010148,-0.00302118,-0.00118423,-0.00089781,-0.000
 86182,-0.00004226,-0.00035060,-0.00015876,-0.00008333,0.00111189,-0.00
 042029,0.00054333,0.14906732,0.00019479,-0.00006079,-0.00003307,-0.000
 33239,-0.00030809,-0.00014316,0.00012525,0.00010438,0.00009222,-0.0000
 3824,0.00012054,0.00014270,-0.00000572,-0.00001762,0.00000153,-0.00000
 065,0.00000452,-0.00000237,0.00000118,0.00000177,-0.00000021,0.0000004
 8,-0.00000179,0.00000727,-0.00000431,-0.00001308,-0.00007729,-0.000003
 43,0.00000505,-0.00000222,-0.00000531,0.00000557,0.00001120,-0.0000140
 8,-0.00000825,-0.00000228,0.00000545,0.00000456,-0.00000086,0.00000278
 ,0.00000225,0.00000062,0.00000595,-0.00000068,0.00000023,0.00000005,-0
 .00000198,0.00000292,0.00000820,0.00000052,-0.00000386,-0.00000217,0.0
 0000103,-0.00000083,0.00000182,-0.00000054,-0.00000009,0.00000117,0.00
 000007,-0.00000060,0.00000130,0.00000118,0.00000003,-0.00000223,-0.000
 00388,-0.00000167,0.00000593,-0.00004089,-0.00001252,0.00001590,0.0000
 0210,-0.00000541,0.00044449,0.00027342,0.00013529,-0.00162716,0.001730
 63,-0.00079275,-0.00330633,0.00509229,-0.00038008,0.12879043,-0.257045
 67,-0.00825453,0.01799168,-0.01750120,-0.00025736,-0.00363163,-0.00365
 528,-0.00150864,-0.00080409,0.00021696,0.00006257,-0.00006010,0.000064
 27,0.00001089,0.00023685,0.00067566,0.00054966,-0.13869177,0.27041040,
 -0.00004541,0.00002478,0.00001343,0.00008101,0.00002492,0.00001824,-0.
 00010939,0.00002040,-0.00000549,0.00000691,-0.00002217,-0.00003282,0.0
 0000136,0.00000373,-0.00000009,0.00000038,-0.00000120,0.00000048,-0.00
 000047,-0.00000044,-0.00000006,-0.00000004,0.00000073,-0.00000116,-0.0
 0000282,0.00000375,0.00001590,0.00000074,-0.00000127,0.00000122,0.0000
 0261,-0.00000242,-0.00000489,0.00000378,0.00000308,0.00000148,-0.00000
 287,-0.00000077,0.00000023,-0.00000073,-0.00000077,-0.00000071,-0.0000
 0167,0.,-0.00000009,-0.00000021,0.00000047,-0.00000075,-0.00000206,-0.
 00000027,0.00000053,0.00000066,-0.00000083,0.00000044,-0.00000056,0.00
 000019,0.00000014,-0.00000035,-0.00000009,0.00000024,-0.00000040,-0.00
 000034,0.00000012,0.00000038,0.00000121,0.00000069,-0.00001104,0.00001
 256,0.00000826,-0.00000282,-0.00000082,0.00000443,-0.00030989,0.000362
 90,0.00009893,-0.00130809,-0.00102096,0.00762040,-0.00248903,0.0029566
 0,0.00380046,0.00220265,-0.00806034,-0.03964044,0.00255248,-0.00402709
 ,0.00369481,-0.00131858,-0.00132141,0.00713918,0.00002653,-0.00000003,
 -0.00106510,-0.00007260,-0.00000465,-0.00016486,0.00079349,0.00060077,
 -0.00437443,-0.00073740,0.00990598,0.02776739,-0.00018907,0.00006432,0
 .00002239,0.00034584,0.00019238,0.00016079,-0.00022744,-0.00008385,-0.
 00014258,0.00003780,-0.00011136,-0.00014247,0.00000562,0.00001806,-0.0
 0000144,0.00000064,-0.00000493,0.00000257,-0.00000132,-0.00000195,0.00
 000028,-0.00000027,0.00000232,-0.00000745,0.00000186,0.00001263,0.0000
 7814,0.00000369,-0.00000534,0.00000313,0.00000675,-0.00000429,-0.00001
 442,0.00001443,0.00000782,0.00000630,-0.00000661,-0.00000446,0.0000006
 0,-0.00000302,-0.00000282,-0.00000065,-0.00000643,0.00000080,-0.000000
 28,0.00000009,0.00000166,-0.00000282,-0.00000908,-0.00000032,0.0000036
 9,0.00000281,-0.00000160,0.00000077,-0.00000201,0.00000062,0.00000006,
 -0.00000130,-0.00000015,0.00000054,-0.00000144,-0.00000128,-0.00000003
 ,0.00000231,0.00000397,0.00000159,-0.00001746,0.00004254,0.00001039,-0
 .00001914,-0.00000150,0.00000320,-0.00038146,-0.00022651,-0.00001896,0
 .00084959,0.00009640,0.00018208,0.00092189,-0.00250623,-0.00089349,-0.
 00895489,0.00244217,-0.00095370,-0.33875137,-0.01501612,-0.03447799,-0
 .01229833,-0.00407878,-0.00203262,0.00032633,0.00325855,-0.00038776,0.
 00005711,-0.00001397,-0.00000101,-0.00048430,0.00019666,-0.00002758,0.
 00070276,-0.00029690,0.00049323,0.35807378,-0.00005548,0.00004618,0.00
 002842,0.00013899,-0.00019498,-0.00011475,-0.00026808,0.00012450,-0.00
 005993,0.00000642,-0.00003711,-0.00003954,0.00000111,0.00000359,-0.000
 00016,0.,-0.00000121,0.00000042,-0.00000023,-0.00000022,0.00000002,0.0
 0000007,0.00000045,-0.00000161,-0.00000037,0.00000478,0.00002121,0.000
 00130,-0.00000106,0.00000189,-0.00000111,-0.00000186,-0.00000021,0.000
 00385,0.00000294,0.00000211,-0.00000099,-0.00000127,0.00000020,-0.0000
 0065,-0.00000017,-0.00000027,-0.00000126,0.00000016,-0.00000003,0.0000
 0003,0.00000061,-0.00000087,-0.00000156,-0.00000043,0.00000081,0.00000
 003,0.00000015,0.00000022,-0.00000038,0.00000011,0.00000002,-0.0000002
 2,0.00000002,0.00000017,-0.00000025,-0.00000024,0.,0.00000043,0.000000
 87,0.00000054,0.00000214,0.00001411,0.00000427,0.00000198,0.00000062,0
 .00000158,0.00006378,0.00036218,0.00018655,0.00016534,-0.00150173,-0.0
 0003860,-0.00176385,-0.00457016,-0.00139794,-0.02894802,0.00341281,-0.
 00304599,-0.01499752,-0.06050664,-0.00449798,0.02719083,0.00601552,0.0
 0335174,0.00258278,-0.00387627,-0.00095330,-0.00012534,-0.00004628,-0.
 00001875,-0.00121403,0.00010652,-0.00006272,0.00056287,0.00103623,0.00
 060718,0.01607200,0.05851397,-0.00003314,-0.00005093,0.00008492,-0.000
 05305,0.00011871,-0.00002802,0.00015451,0.00003631,0.00000984,0.000003
 01,-0.00002996,-0.00000705,-0.00000038,0.00000135,0.00000204,0.0000001
 2,-0.00000028,-0.00000040,-0.00000026,0.00000024,-0.00000009,-0.000000
 03,-0.00000037,-0.00000017,0.00000056,0.00000057,0.00000393,0.00000133
 ,0.00000011,0.00000150,-0.00000075,0.00000034,0.00000052,-0.00000194,0
 .00000740,-0.00000994,-0.00000141,-0.00000074,0.00000048,-0.00000025,0
 .00000062,-0.00000025,-0.00000029,-0.00000024,-0.00000014,-0.00000043,
 0.00000040,0.00000015,0.00000044,0.00000027,0.00000026,0.00000014,-0.0
 0000023,0.00000073,-0.00000034,0.00000001,0.00000005,-0.00000017,-0.00
 000003,0.00000021,-0.00000010,-0.00000011,0.00000008,0.00000056,0.0000
 0075,0.00000012,-0.00000514,0.00001285,0.00000938,-0.00000503,-0.00000
 243,0.00000148,-0.00002341,0.00030294,-0.00103996,0.00017081,-0.000188
 95,-0.00064965,-0.00059618,-0.00151922,0.00698081,-0.00450810,0.000151
 46,0.00189538,-0.03448038,-0.00426629,-0.03938266,0.00150781,-0.000161
 90,0.00242250,-0.00067418,-0.00083323,0.00711178,0.00002097,-0.0000151
 2,-0.00000796,-0.00026776,-0.00001557,0.00023527,0.00062049,0.00050354
 ,-0.00402486,0.03772232,0.00540872,0.03008618,-0.00027684,-0.00000720,
 -0.00006640,0.00004409,0.00066906,0.00059465,0.00002898,-0.00025014,-0
 .00013415,0.00006697,-0.00017594,-0.00021342,0.00000851,0.00002674,-0.
 00000187,0.00000067,-0.00000706,0.00000382,-0.00000180,-0.00000275,0.0
 0000050,-0.00000063,0.00000377,-0.00001174,0.00000358,0.00001981,0.000
 11491,0.00000494,-0.00000839,0.00000465,0.00000989,-0.00000820,-0.0000
 2260,0.00001940,0.00001478,0.00001029,-0.00000856,-0.00000715,0.000001
 73,-0.00000546,-0.00000443,-0.00000153,-0.00000981,0.00000225,-0.00000
 048,0.00000124,0.00000287,-0.00000349,-0.00001388,-0.00000114,0.000006
 42,0.00000366,-0.00000214,0.00000154,-0.00000303,0.00000084,0.00000001
 ,-0.00000186,-0.00000015,0.00000078,-0.00000203,-0.00000184,0.,0.00000
 352,0.00000660,0.00000154,-0.00002485,0.00006683,0.00001748,-0.0000645
 0,0.00000330,-0.00000067,-0.00099741,-0.00183468,-0.00068177,-0.004533
 58,0.00107054,-0.00127574,-0.00103706,0.00066460,0.00008241,-0.0011420
 1,0.00352586,-0.00056473,0.01195210,0.01672390,0.00278493,-0.11169183,
 -0.10691809,-0.01965544,-0.00862356,-0.02925466,-0.00433973,0.00012614
 ,-0.00007700,-0.00004942,0.00009442,-0.00010912,0.00009614,0.00039989,
 0.00085550,0.00012210,0.00077237,-0.00074515,0.00042739,0.11387369,-0.
 00019374,0.00004586,0.00002777,0.00037258,0.00042451,0.00026179,-0.000
 05284,-0.00016997,-0.00011856,0.00004331,-0.00012589,-0.00014872,0.000
 00628,0.00001850,-0.00000218,0.00000071,-0.00000488,0.00000247,-0.0000
 0124,-0.00000202,0.00000024,-0.00000063,0.00000224,-0.00000761,0.00000
 460,0.00001430,0.00007972,0.00000327,-0.00000564,0.00000220,0.00000700
 ,-0.00000615,-0.00001474,0.00001419,0.00000901,0.00000384,-0.00000639,
 -0.00000470,0.00000079,-0.00000307,-0.00000262,-0.00000050,-0.00000640
 ,0.00000074,-0.00000031,-0.00000004,0.00000197,-0.00000294,-0.00000871
 ,-0.00000045,0.00000391,0.00000246,-0.00000139,0.00000073,-0.00000202,
 0.00000062,0.00000006,-0.00000127,-0.00000012,0.00000059,-0.00000139,-
 0.00000124,-0.00000003,0.00000234,0.00000412,0.00000167,-0.00001389,0.
 00004609,0.00001207,-0.00002008,-0.00000011,0.00000326,-0.00060839,-0.
 00030140,-0.00016527,0.00103253,0.00198255,-0.00060002,0.00056237,0.00
 032436,0.00023660,0.00421123,-0.00273177,-0.00061440,-0.01415218,-0.01
 736344,-0.00386700,-0.10744951,-0.28468904,-0.03867219,0.00177078,0.00
 204987,0.00001622,0.00003637,-0.00005911,0.00001306,-0.00010903,-0.000
 03026,0.00011158,-0.00066236,-0.00105392,-0.00018394,0.00012630,0.0009
 9349,0.00056542,0.11546328,0.29991435,-0.00005332,0.00002714,-0.000010
 03,0.00003668,0.00026046,0.00007797,0.00002659,-0.00009329,-0.00001996
 ,0.00000434,-0.00003272,-0.00003620,0.00000053,0.00000461,0.00000013,0
 .00000034,-0.00000122,0.00000039,-0.00000034,-0.00000043,-0.00000002,0
 .00000019,0.00000005,-0.00000113,0.00000092,0.00000350,0.00002082,0.00
 000116,-0.00000130,0.00000074,0.00000140,-0.00000092,-0.00000175,0.000
 00417,0.00000385,0.00000330,-0.00000178,-0.00000107,-0.00000071,-0.000
 00076,-0.00000082,-0.00000041,-0.00000191,0.00000050,-0.00000021,0.000
 00056,0.00000048,-0.00000073,-0.00000266,-0.00000011,0.00000073,0.0000
 0063,-0.00000032,0.00000049,-0.00000052,0.00000018,0.00000017,-0.00000
 031,-0.00000002,0.00000022,-0.00000033,-0.00000033,0.00000012,0.000000
 50,0.00000094,0.00000037,-0.00000151,0.00001058,0.00000186,-0.00000566
 ,-0.00000676,0.00000144,-0.00025700,-0.00022238,-0.00002389,-0.0013207
 1,-0.00046199,0.00769796,0.00021011,0.00011984,-0.00108679,-0.00041786
 ,-0.00063401,0.00736694,-0.00056411,-0.00068085,0.00358706,-0.01975556
 ,-0.03854138,-0.04501061,-0.00124556,-0.00339863,0.00300744,0.00001826
 ,-0.00002337,-0.00002169,0.00015043,0.00011463,-0.00099375,-0.00004126
 ,-0.00004681,0.00001916,0.00054375,0.00048923,-0.00398783,0.02208362,0
 .04251978,0.03371143,0.00013201,0.00002552,0.00001109,-0.00006093,-0.0
 0038240,-0.00016587,-0.00004145,0.00016700,0.00007542,-0.00002511,-0.0
 0000367,0.00013072,-0.00000618,-0.00002058,-0.00000477,-0.00000029,0.0
 0000728,-0.00000355,0.00000151,0.00000273,-0.00000034,0.00000092,-0.00
 000187,0.00000756,0.00000265,0.00000644,-0.00007341,-0.00000236,0.0000
 0612,0.00000004,0.00000655,0.00000940,0.00001926,-0.00001633,0.0000063
 6,-0.00000367,0.00001181,0.00000238,-0.00000142,0.00000263,0.00000501,
 0.00000134,0.00000819,0.00000039,0.00000039,0.00000086,0.00000061,0.00
 000215,0.00001483,-0.00000211,-0.00000368,-0.00000497,0.00000604,-0.00
 000109,0.00000279,-0.00000086,-0.00000011,0.00000182,0.00000051,-0.000
 00058,0.00000251,0.00000163,0.00000009,-0.00000282,-0.00000429,-0.0000
 0132,0.00006474,0.00005804,0.00004173,0.00003071,0.00001099,-0.0000136
 0,0.00226358,-0.00139495,0.00041007,0.00825774,-0.01230855,-0.00086934
 ,-0.00032347,-0.00264068,-0.00090702,-0.00080581,-0.00079503,-0.000101
 80,-0.00509469,-0.00157173,-0.00158140,-0.01210516,0.02808155,0.001411
 72,-0.14279505,0.12764255,0.00173531,-0.00042924,-0.00000136,0.0002074
 3,0.00036006,-0.00060569,-0.00004431,0.00004623,0.00013729,0.00012813,
 -0.00077070,0.00133054,0.00002227,0.00102462,-0.00036640,0.00058696,0.
 15024779,-0.00002772,-0.00001326,0.00002387,-0.00026183,-0.00004547,-0
 .00024992,-0.00016264,0.00029907,0.00016463,-0.00001066,-0.00005048,-0
 .00002725,0.00000340,-0.00000406,-0.00000002,-0.00000027,0.00000014,-0
 .00000113,0.00000032,0.00000175,-0.00000025,0.00000041,0.00000047,-0.0
 0000029,0.00000664,0.00000566,0.00001173,0.00000099,0.00000133,0.00000
 118,-0.00001985,-0.00001406,0.00001858,0.00000366,0.00000837,-0.000005
 82,0.00000320,-0.00000102,0.00000021,-0.00000046,0.00000225,-0.0000003
 3,0.00000102,0.00000083,-0.00000012,0.00000097,0.00000090,0.00000036,0
 .00000118,-0.00000153,0.00000040,-0.00000337,0.00000214,0.00000074,0.0
 0000030,-0.00000018,0.00000005,0.00000035,0.00000028,0.00000014,0.0000
 0050,0.00000028,-0.00000004,-0.00000015,0.00000041,0.00000004,0.000018
 11,0.00005530,0.00001413,-0.00000504,0.00001101,-0.00000355,0.00186681
 ,0.00160444,0.00077556,0.01841007,-0.01779439,-0.00034376,-0.00360745,
 -0.00363040,-0.00143592,-0.00112861,-0.00000881,-0.00002046,-0.0008521
 5,0.00185876,-0.00070810,-0.00315368,0.00545049,-0.00013287,0.12703360
 ,-0.25469050,-0.00909787,-0.00190869,-0.00068664,-0.00008049,0.0009737
 6,-0.00093713,0.00001292,0.00010762,-0.00003973,0.00012056,-0.00017685
 ,0.00009978,-0.00002642,0.00029470,0.00072155,0.00059294,-0.13740820,0
 .26779245,0.00019852,-0.00017546,0.00005932,-0.00040524,-0.00015980,-0
 .00086524,-0.00008435,0.00013062,0.00013480,-0.00002515,0.00010468,0.0
 0015378,-0.00000887,-0.00001913,0.00000312,-0.00000043,0.00000518,-0.0
 0000230,0.00000025,0.00000177,0.00000052,0.00000172,0.00000046,0.00000
 632,-0.00000816,-0.00001650,-0.00009072,-0.00000464,0.00000441,0.00000
 141,0.00000670,0.00000993,-0.00000164,-0.00001697,0.00000945,-0.000027
 54,0.00000226,0.00000564,0.00000306,0.00000320,0.00000266,-0.00000271,
 0.00000448,-0.00000144,-0.00000029,-0.00000095,-0.00000016,0.00000420,
 0.00001030,-0.00000079,-0.00000303,-0.00000140,-0.00000011,0.00000168,
 0.00000118,-0.00000048,0.00000004,0.00000063,0.00000001,0.00000021,0.0
 0000109,0.00000092,0.00000004,-0.00000072,-0.00000159,-0.00000214,0.00
 000526,-0.00001269,-0.00002064,-0.00000264,-0.00001868,0.00002763,0.00
 047884,0.00102964,-0.00308234,0.00340457,-0.00384547,0.00445669,-0.001
 14965,-0.00146374,0.00538236,-0.00013457,-0.00000346,-0.00086060,-0.00
 151007,-0.00074375,0.00728723,-0.00198588,0.00344445,0.00302496,0.0012
 3131,-0.00923275,-0.03662677,0.00010982,-0.00005826,0.00025765,0.00023
 423,-0.00015413,0.00003494,0.00012202,0.00009995,-0.00089043,-0.000130
 54,0.00012736,0.00029138,0.00066824,0.00053466,-0.00430303,-0.00101442
 ,0.01039659,0.02564809\\0.00000058,-0.00000281,0.00000123,-0.00000143,
 -0.00000229,0.00000099,-0.00000002,-0.00000420,0.00000317,0.00000007,-
 0.00000142,0.00000041,0.00000085,0.00000454,0.00000224,0.00000172,0.00
 000703,0.00000314,0.00000164,0.00000481,0.00000519,0.00000008,0.000003
 40,0.00000451,0.00000139,0.00000399,-0.00000043,-0.00000035,0.00000479
 ,-0.00000252,-0.00000092,0.00000342,-0.00000105,-0.00000036,-0.0000015
 7,0.00000038,-0.00000005,-0.00000193,-0.00000067,-0.00000047,-0.000002
 04,-0.00000030,-0.00000017,-0.00000202,0.00000305,0.00000035,-0.000002
 12,0.00000526,-0.00000026,-0.00000157,0.00000334,-0.00000043,-0.000001
 61,-0.00000421,-0.00000059,-0.00000214,-0.00000208,-0.00000013,-0.0000
 0245,0.00000396,0.00000027,-0.00000211,0.00000788,0.00000077,-0.000001
 89,0.00000687,-0.00000045,-0.00000136,-0.00000553,-0.00000042,-0.00000
 408,0.00000337,0.00000028,-0.00000026,-0.00000162,-0.00000036,-0.00000
 009,-0.00000215,0.00000011,-0.00000013,0.00000046,0.00000008,0.0000006
 3,-0.00000037,-0.00000010,0.00000103,-0.00000368,-0.00000039,0.0000010
 5,-0.00000623,-0.00000040,0.00000035,-0.00000529,-0.00000013,-0.000000
 40,-0.00000357,0.00000002,-0.00000068,0.00000288,0.00000024,0.00000058
 ,0.00000159,-0.00000007,0.00000166,-0.00000424,-0.00000045,0.00000158,
 -0.00000868,-0.00000050,0.00000033,-0.00000731\\\@


 A MATHEMATICIAN IS A MACHINE FOR TURNING COFFEE INTO THEOREMS.
     -- QUOTED BY PAUL ERDOS
 Job cpu time:       1 days  8 hours 54 minutes 36.9 seconds.
 Elapsed time:       0 days  2 hours  3 minutes 30.1 seconds.
 File lengths (MBytes):  RWF=   1950 Int=      0 D2E=      0 Chk=     60 Scr=      1
 Normal termination of Gaussian 16 at Sun Feb  7 04:37:18 2021.
