 Entering Gaussian System, Link 0=g16
 Initial command:
 /apps/gaussian/16/A.03/g16/l1.exe "/beegfs/scratch/user/q/tla25/Gau-6869.inp" -scrdir="/beegfs/scratch/user/q/tla25/"
 Entering Link 1 = /apps/gaussian/16/A.03/g16/l1.exe PID=      6870.
  
 Copyright (c) 1988,1990,1992,1993,1995,1998,2003,2009,2016,
            Gaussian, Inc.  All Rights Reserved.
  
 This is part of the Gaussian(R) 16 program.  It is based on
 the Gaussian(R) 09 system (copyright 2009, Gaussian, Inc.),
 the Gaussian(R) 03 system (copyright 2003, Gaussian, Inc.),
 the Gaussian(R) 98 system (copyright 1998, Gaussian, Inc.),
 the Gaussian(R) 94 system (copyright 1995, Gaussian, Inc.),
 the Gaussian 92(TM) system (copyright 1992, Gaussian, Inc.),
 the Gaussian 90(TM) system (copyright 1990, Gaussian, Inc.),
 the Gaussian 88(TM) system (copyright 1988, Gaussian, Inc.),
 the Gaussian 86(TM) system (copyright 1986, Carnegie Mellon
 University), and the Gaussian 82(TM) system (copyright 1983,
 Carnegie Mellon University). Gaussian is a federally registered
 trademark of Gaussian, Inc.
  
 This software contains proprietary and confidential information,
 including trade secrets, belonging to Gaussian, Inc.
  
 This software is provided under written license and may be
 used, copied, transmitted, or stored only in accord with that
 written license.
  
 The following legend is applicable only to US Government
 contracts under FAR:
  
                    RESTRICTED RIGHTS LEGEND
  
 Use, reproduction and disclosure by the US Government is
 subject to restrictions as set forth in subparagraphs (a)
 and (c) of the Commercial Computer Software - Restricted
 Rights clause in FAR 52.227-19.
  
 Gaussian, Inc.
 340 Quinnipiac St., Bldg. 40, Wallingford CT 06492
  
  
 ---------------------------------------------------------------
 Warning -- This program may not be used in any manner that
 competes with the business of Gaussian, Inc. or will provide
 assistance to any competitor of Gaussian, Inc.  The licensee
 of this program is prohibited from giving any competitor of
 Gaussian, Inc. access to this program.  By using this program,
 the user acknowledges that Gaussian, Inc. is engaged in the
 business of creating and licensing software in the field of
 computational chemistry and represents and warrants to the
 licensee that it is not a competitor of Gaussian, Inc. and that
 it will not use this program in any manner prohibited above.
 ---------------------------------------------------------------
  

 Cite this work as:
 Gaussian 16, Revision A.03,
 M. J. Frisch, G. W. Trucks, H. B. Schlegel, G. E. Scuseria, 
 M. A. Robb, J. R. Cheeseman, G. Scalmani, V. Barone, 
 G. A. Petersson, H. Nakatsuji, X. Li, M. Caricato, A. V. Marenich, 
 J. Bloino, B. G. Janesko, R. Gomperts, B. Mennucci, H. P. Hratchian, 
 J. V. Ortiz, A. F. Izmaylov, J. L. Sonnenberg, D. Williams-Young, 
 F. Ding, F. Lipparini, F. Egidi, J. Goings, B. Peng, A. Petrone, 
 T. Henderson, D. Ranasinghe, V. G. Zakrzewski, J. Gao, N. Rega, 
 G. Zheng, W. Liang, M. Hada, M. Ehara, K. Toyota, R. Fukuda, 
 J. Hasegawa, M. Ishida, T. Nakajima, Y. Honda, O. Kitao, H. Nakai, 
 T. Vreven, K. Throssell, J. A. Montgomery, Jr., J. E. Peralta, 
 F. Ogliaro, M. J. Bearpark, J. J. Heyd, E. N. Brothers, K. N. Kudin, 
 V. N. Staroverov, T. A. Keith, R. Kobayashi, J. Normand, 
 K. Raghavachari, A. P. Rendell, J. C. Burant, S. S. Iyengar, 
 J. Tomasi, M. Cossi, J. M. Millam, M. Klene, C. Adamo, R. Cammi, 
 J. W. Ochterski, R. L. Martin, K. Morokuma, O. Farkas, 
 J. B. Foresman, and D. J. Fox, Gaussian, Inc., Wallingford CT, 2016.
 
 ******************************************
 Gaussian 16:  ES64L-G16RevA.03 25-Dec-2016
                 7-Feb-2021 
 ******************************************
 %nprocshared=16
 Will use up to   16 processors via shared memory.
 %mem=48GB
 ----------------------------------------------------------------------
 # wB97XD def2tzvp, opt=(ts, noeigen, calcfc, maxcycles=70, maxstep=3),
  freq=noraman, scrf=(iefpcm, solvent=water)
 ----------------------------------------------------------------------
 1/5=1,6=70,8=3,10=4,11=1,18=20,26=3,38=1/1,3;
 2/9=110,12=2,17=6,18=5,40=1/2;
 3/5=44,7=101,11=2,25=1,30=1,70=2201,71=2,72=1,74=-58,140=1/1,2,3;
 4//1;
 5/5=2,38=5,53=1/2;
 8/6=4,10=90,11=11/1;
 11/6=1,8=1,9=11,15=111,16=1/1,2,10;
 10/6=1,13=1/2;
 6/7=2,8=2,9=2,10=2,28=1/1;
 7/10=1,18=20,25=1/1,2,3,16;
 1/5=1,6=70,8=3,10=4,11=1,18=20,26=3/3(2);
 2/9=110/2;
 99//99;
 2/9=110/2;
 3/5=44,7=101,11=2,25=1,30=1,70=2205,71=1,72=1,74=-58/1,2,3;
 4/5=5,16=3,69=1/1;
 5/5=2,38=5,53=1/2;
 7//1,2,3,16;
 1/5=1,6=70,8=3,11=1,18=20,26=3/3(-5);
 2/9=110/2;
 6/7=2,8=2,9=2,10=2,19=2,28=1/1;
 99/9=1/99;
 ------------------------
 3_iteration/TS-182-3.out
 ------------------------
 Symbolic Z-matrix:
 Charge =  0 Multiplicity = 1
 C                    -0.7691   -0.32125  -0.29186 
 C                    -2.12635   0.12235  -0.0159 
 O                    -2.39352   1.29902   0.31054 
 C                     0.2847    0.37649   0.28593 
 C                     0.14968   2.3135   -1.73353 
 H                    -0.3219    3.25235  -2.02384 
 H                     1.15394   2.27179  -2.14859 
 H                    -0.43793   1.48747  -2.13609 
 N                     0.18183   2.16853  -0.284 
 H                     0.8211    2.80567   0.1765 
 H                    -0.76563   2.28624   0.08854 
 C                     1.69488  -0.095     0.08043 
 C                     1.97207  -1.42844   0.38635 
 C                     3.25057  -1.93868   0.25128 
 C                     4.28412  -1.12262  -0.18932 
 C                     4.02343   0.20541  -0.48077 
 C                     2.73988   0.7172   -0.34144 
 H                     1.17125  -2.06598   0.73768 
 H                     3.44101  -2.97661   0.49297 
 H                     5.28531  -1.51946  -0.29803 
 H                     4.82058   0.85587  -0.81723 
 H                     2.58106   1.76103  -0.56507 
 Cl                    0.12149   0.82024   2.07557 
 C                    -0.51057  -1.26802  -1.45111 
 H                    -0.33339  -2.30771  -1.1581 
 H                    -1.36534  -1.26884  -2.12993 
 H                     0.35629  -0.95327  -2.03403 
 N                    -3.14999  -0.766    -0.18375 
 C                    -2.98927  -2.19697  -0.03433 
 C                    -4.51494  -0.28945  -0.16921 
 H                    -1.99895  -2.42655   0.34945 
 H                    -3.72446  -2.56783   0.68457 
 H                    -3.13661  -2.72755  -0.97913 
 H                    -4.55718   0.72582  -0.5539 
 H                    -5.12467  -0.93781  -0.80077 
 H                    -4.93919  -0.29552   0.84103 
 
 Add virtual bond connecting atoms N9         and C4         Dist= 3.56D+00.
 Add virtual bond connecting atoms H11        and O3         Dist= 3.62D+00.

 GradGradGradGradGradGradGradGradGradGradGradGradGradGradGradGradGradGrad
 Berny optimization.
 Initialization pass.
                           ----------------------------
                           !    Initial Parameters    !
                           ! (Angstroms and Degrees)  !
 --------------------------                            --------------------------
 ! Name  Definition              Value          Derivative Info.                !
 --------------------------------------------------------------------------------
 ! R1    R(1,2)                  1.4543         calculate D2E/DX2 analytically  !
 ! R2    R(1,4)                  1.3897         calculate D2E/DX2 analytically  !
 ! R3    R(1,24)                 1.5189         calculate D2E/DX2 analytically  !
 ! R4    R(2,3)                  1.25           calculate D2E/DX2 analytically  !
 ! R5    R(2,28)                 1.3657         calculate D2E/DX2 analytically  !
 ! R6    R(3,11)                 1.9167         calculate D2E/DX2 analytically  !
 ! R7    R(4,9)                  1.8833         calculate D2E/DX2 analytically  !
 ! R8    R(4,12)                 1.501          calculate D2E/DX2 analytically  !
 ! R9    R(4,23)                 1.851          calculate D2E/DX2 analytically  !
 ! R10   R(5,6)                  1.09           calculate D2E/DX2 analytically  !
 ! R11   R(5,7)                  1.0875         calculate D2E/DX2 analytically  !
 ! R12   R(5,8)                  1.0907         calculate D2E/DX2 analytically  !
 ! R13   R(5,9)                  1.4571         calculate D2E/DX2 analytically  !
 ! R14   R(9,10)                 1.0132         calculate D2E/DX2 analytically  !
 ! R15   R(9,11)                 1.0249         calculate D2E/DX2 analytically  !
 ! R16   R(12,13)                1.3959         calculate D2E/DX2 analytically  !
 ! R17   R(12,17)                1.3891         calculate D2E/DX2 analytically  !
 ! R18   R(13,14)                1.3832         calculate D2E/DX2 analytically  !
 ! R19   R(13,18)                1.0822         calculate D2E/DX2 analytically  !
 ! R20   R(14,15)                1.3886         calculate D2E/DX2 analytically  !
 ! R21   R(14,19)                1.0826         calculate D2E/DX2 analytically  !
 ! R22   R(15,16)                1.3844         calculate D2E/DX2 analytically  !
 ! R23   R(15,20)                1.0824         calculate D2E/DX2 analytically  !
 ! R24   R(16,17)                1.3888         calculate D2E/DX2 analytically  !
 ! R25   R(16,21)                1.0825         calculate D2E/DX2 analytically  !
 ! R26   R(17,22)                1.0793         calculate D2E/DX2 analytically  !
 ! R27   R(24,25)                1.0946         calculate D2E/DX2 analytically  !
 ! R28   R(24,26)                1.0915         calculate D2E/DX2 analytically  !
 ! R29   R(24,27)                1.091          calculate D2E/DX2 analytically  !
 ! R30   R(28,29)                1.4477         calculate D2E/DX2 analytically  !
 ! R31   R(28,30)                1.4458         calculate D2E/DX2 analytically  !
 ! R32   R(29,31)                1.0866         calculate D2E/DX2 analytically  !
 ! R33   R(29,32)                1.0931         calculate D2E/DX2 analytically  !
 ! R34   R(29,33)                1.0936         calculate D2E/DX2 analytically  !
 ! R35   R(30,34)                1.0865         calculate D2E/DX2 analytically  !
 ! R36   R(30,35)                1.0913         calculate D2E/DX2 analytically  !
 ! R37   R(30,36)                1.0957         calculate D2E/DX2 analytically  !
 ! A1    A(2,1,4)              118.4018         calculate D2E/DX2 analytically  !
 ! A2    A(2,1,24)             119.5903         calculate D2E/DX2 analytically  !
 ! A3    A(4,1,24)             120.0808         calculate D2E/DX2 analytically  !
 ! A4    A(1,2,3)              122.422          calculate D2E/DX2 analytically  !
 ! A5    A(1,2,28)             118.5398         calculate D2E/DX2 analytically  !
 ! A6    A(3,2,28)             118.9602         calculate D2E/DX2 analytically  !
 ! A7    A(2,3,11)             105.8466         calculate D2E/DX2 analytically  !
 ! A8    A(1,4,9)              108.0904         calculate D2E/DX2 analytically  !
 ! A9    A(1,4,12)             119.8528         calculate D2E/DX2 analytically  !
 ! A10   A(1,4,23)             117.0963         calculate D2E/DX2 analytically  !
 ! A11   A(9,4,12)             107.9853         calculate D2E/DX2 analytically  !
 ! A12   A(9,4,23)              93.42           calculate D2E/DX2 analytically  !
 ! A13   A(12,4,23)            106.8878         calculate D2E/DX2 analytically  !
 ! A14   A(6,5,7)              109.3248         calculate D2E/DX2 analytically  !
 ! A15   A(6,5,8)              108.719          calculate D2E/DX2 analytically  !
 ! A16   A(6,5,9)              111.112          calculate D2E/DX2 analytically  !
 ! A17   A(7,5,8)              109.1234         calculate D2E/DX2 analytically  !
 ! A18   A(7,5,9)              110.8242         calculate D2E/DX2 analytically  !
 ! A19   A(8,5,9)              107.6797         calculate D2E/DX2 analytically  !
 ! A20   A(4,9,5)              113.386          calculate D2E/DX2 analytically  !
 ! A21   A(4,9,10)             115.2356         calculate D2E/DX2 analytically  !
 ! A22   A(4,9,11)              92.8535         calculate D2E/DX2 analytically  !
 ! A23   A(5,9,10)             113.7954         calculate D2E/DX2 analytically  !
 ! A24   A(5,9,11)             109.2559         calculate D2E/DX2 analytically  !
 ! A25   A(10,9,11)            110.2331         calculate D2E/DX2 analytically  !
 ! A26   A(3,11,9)             140.1844         calculate D2E/DX2 analytically  !
 ! A27   A(4,12,13)            117.1685         calculate D2E/DX2 analytically  !
 ! A28   A(4,12,17)            124.3784         calculate D2E/DX2 analytically  !
 ! A29   A(13,12,17)           118.4052         calculate D2E/DX2 analytically  !
 ! A30   A(12,13,14)           120.9667         calculate D2E/DX2 analytically  !
 ! A31   A(12,13,18)           119.1407         calculate D2E/DX2 analytically  !
 ! A32   A(14,13,18)           119.8921         calculate D2E/DX2 analytically  !
 ! A33   A(13,14,15)           120.1435         calculate D2E/DX2 analytically  !
 ! A34   A(13,14,19)           119.6353         calculate D2E/DX2 analytically  !
 ! A35   A(15,14,19)           120.2211         calculate D2E/DX2 analytically  !
 ! A36   A(14,15,16)           119.3659         calculate D2E/DX2 analytically  !
 ! A37   A(14,15,20)           120.3207         calculate D2E/DX2 analytically  !
 ! A38   A(16,15,20)           120.3124         calculate D2E/DX2 analytically  !
 ! A39   A(15,16,17)           120.4251         calculate D2E/DX2 analytically  !
 ! A40   A(15,16,21)           120.2118         calculate D2E/DX2 analytically  !
 ! A41   A(17,16,21)           119.3629         calculate D2E/DX2 analytically  !
 ! A42   A(12,17,16)           120.6808         calculate D2E/DX2 analytically  !
 ! A43   A(12,17,22)           121.179          calculate D2E/DX2 analytically  !
 ! A44   A(16,17,22)           118.1394         calculate D2E/DX2 analytically  !
 ! A45   A(1,24,25)            114.5379         calculate D2E/DX2 analytically  !
 ! A46   A(1,24,26)            109.9879         calculate D2E/DX2 analytically  !
 ! A47   A(1,24,27)            111.2964         calculate D2E/DX2 analytically  !
 ! A48   A(25,24,26)           107.0084         calculate D2E/DX2 analytically  !
 ! A49   A(25,24,27)           106.7638         calculate D2E/DX2 analytically  !
 ! A50   A(26,24,27)           106.8667         calculate D2E/DX2 analytically  !
 ! A51   A(2,28,29)            123.1651         calculate D2E/DX2 analytically  !
 ! A52   A(2,28,30)            119.4701         calculate D2E/DX2 analytically  !
 ! A53   A(29,28,30)           115.44           calculate D2E/DX2 analytically  !
 ! A54   A(28,29,31)           110.2717         calculate D2E/DX2 analytically  !
 ! A55   A(28,29,32)           109.1818         calculate D2E/DX2 analytically  !
 ! A56   A(28,29,33)           112.0521         calculate D2E/DX2 analytically  !
 ! A57   A(31,29,32)           107.9995         calculate D2E/DX2 analytically  !
 ! A58   A(31,29,33)           108.9915         calculate D2E/DX2 analytically  !
 ! A59   A(32,29,33)           108.2388         calculate D2E/DX2 analytically  !
 ! A60   A(28,30,34)           109.9457         calculate D2E/DX2 analytically  !
 ! A61   A(28,30,35)           109.0148         calculate D2E/DX2 analytically  !
 ! A62   A(28,30,36)           111.8993         calculate D2E/DX2 analytically  !
 ! A63   A(34,30,35)           109.1791         calculate D2E/DX2 analytically  !
 ! A64   A(34,30,36)           108.4548         calculate D2E/DX2 analytically  !
 ! A65   A(35,30,36)           108.297          calculate D2E/DX2 analytically  !
 ! D1    D(4,1,2,3)             24.778          calculate D2E/DX2 analytically  !
 ! D2    D(4,1,2,28)          -158.4675         calculate D2E/DX2 analytically  !
 ! D3    D(24,1,2,3)          -139.4452         calculate D2E/DX2 analytically  !
 ! D4    D(24,1,2,28)           37.3093         calculate D2E/DX2 analytically  !
 ! D5    D(2,1,4,9)            -58.9326         calculate D2E/DX2 analytically  !
 ! D6    D(2,1,4,12)           176.8725         calculate D2E/DX2 analytically  !
 ! D7    D(2,1,4,23)            44.8142         calculate D2E/DX2 analytically  !
 ! D8    D(24,1,4,9)           105.2109         calculate D2E/DX2 analytically  !
 ! D9    D(24,1,4,12)          -18.984          calculate D2E/DX2 analytically  !
 ! D10   D(24,1,4,23)         -151.0423         calculate D2E/DX2 analytically  !
 ! D11   D(2,1,24,25)         -103.5182         calculate D2E/DX2 analytically  !
 ! D12   D(2,1,24,26)           17.0268         calculate D2E/DX2 analytically  !
 ! D13   D(2,1,24,27)          135.2663         calculate D2E/DX2 analytically  !
 ! D14   D(4,1,24,25)           92.5266         calculate D2E/DX2 analytically  !
 ! D15   D(4,1,24,26)         -146.9284         calculate D2E/DX2 analytically  !
 ! D16   D(4,1,24,27)          -28.6889         calculate D2E/DX2 analytically  !
 ! D17   D(1,2,3,11)             8.1265         calculate D2E/DX2 analytically  !
 ! D18   D(28,2,3,11)         -168.6149         calculate D2E/DX2 analytically  !
 ! D19   D(1,2,28,29)           28.3984         calculate D2E/DX2 analytically  !
 ! D20   D(1,2,28,30)         -168.1228         calculate D2E/DX2 analytically  !
 ! D21   D(3,2,28,29)         -154.7326         calculate D2E/DX2 analytically  !
 ! D22   D(3,2,28,30)            8.7462         calculate D2E/DX2 analytically  !
 ! D23   D(2,3,11,9)             7.7304         calculate D2E/DX2 analytically  !
 ! D24   D(1,4,9,5)            -54.7425         calculate D2E/DX2 analytically  !
 ! D25   D(1,4,9,10)           171.6444         calculate D2E/DX2 analytically  !
 ! D26   D(1,4,9,11)            57.672          calculate D2E/DX2 analytically  !
 ! D27   D(12,4,9,5)            76.2993         calculate D2E/DX2 analytically  !
 ! D28   D(12,4,9,10)          -57.3138         calculate D2E/DX2 analytically  !
 ! D29   D(12,4,9,11)         -171.2862         calculate D2E/DX2 analytically  !
 ! D30   D(23,4,9,5)          -174.7129         calculate D2E/DX2 analytically  !
 ! D31   D(23,4,9,10)           51.674          calculate D2E/DX2 analytically  !
 ! D32   D(23,4,9,11)          -62.2983         calculate D2E/DX2 analytically  !
 ! D33   D(1,4,12,13)          -52.9213         calculate D2E/DX2 analytically  !
 ! D34   D(1,4,12,17)          129.6422         calculate D2E/DX2 analytically  !
 ! D35   D(9,4,12,13)         -177.1665         calculate D2E/DX2 analytically  !
 ! D36   D(9,4,12,17)            5.3969         calculate D2E/DX2 analytically  !
 ! D37   D(23,4,12,13)          83.3883         calculate D2E/DX2 analytically  !
 ! D38   D(23,4,12,17)         -94.0482         calculate D2E/DX2 analytically  !
 ! D39   D(6,5,9,4)            155.7767         calculate D2E/DX2 analytically  !
 ! D40   D(6,5,9,10)           -69.9289         calculate D2E/DX2 analytically  !
 ! D41   D(6,5,9,11)            53.7411         calculate D2E/DX2 analytically  !
 ! D42   D(7,5,9,4)            -82.462          calculate D2E/DX2 analytically  !
 ! D43   D(7,5,9,10)            51.8324         calculate D2E/DX2 analytically  !
 ! D44   D(7,5,9,11)           175.5024         calculate D2E/DX2 analytically  !
 ! D45   D(8,5,9,4)             36.8203         calculate D2E/DX2 analytically  !
 ! D46   D(8,5,9,10)           171.1146         calculate D2E/DX2 analytically  !
 ! D47   D(8,5,9,11)           -65.2154         calculate D2E/DX2 analytically  !
 ! D48   D(4,9,11,3)           -36.0604         calculate D2E/DX2 analytically  !
 ! D49   D(5,9,11,3)            79.9402         calculate D2E/DX2 analytically  !
 ! D50   D(10,9,11,3)         -154.3101         calculate D2E/DX2 analytically  !
 ! D51   D(4,12,13,14)        -178.7241         calculate D2E/DX2 analytically  !
 ! D52   D(4,12,13,18)           1.027          calculate D2E/DX2 analytically  !
 ! D53   D(17,12,13,14)         -1.1292         calculate D2E/DX2 analytically  !
 ! D54   D(17,12,13,18)        178.6218         calculate D2E/DX2 analytically  !
 ! D55   D(4,12,17,16)         178.6969         calculate D2E/DX2 analytically  !
 ! D56   D(4,12,17,22)          -0.9948         calculate D2E/DX2 analytically  !
 ! D57   D(13,12,17,16)          1.2897         calculate D2E/DX2 analytically  !
 ! D58   D(13,12,17,22)       -178.402          calculate D2E/DX2 analytically  !
 ! D59   D(12,13,14,15)          0.2418         calculate D2E/DX2 analytically  !
 ! D60   D(12,13,14,19)       -179.892          calculate D2E/DX2 analytically  !
 ! D61   D(18,13,14,15)       -179.5074         calculate D2E/DX2 analytically  !
 ! D62   D(18,13,14,19)          0.3588         calculate D2E/DX2 analytically  !
 ! D63   D(13,14,15,16)          0.5025         calculate D2E/DX2 analytically  !
 ! D64   D(13,14,15,20)       -179.8724         calculate D2E/DX2 analytically  !
 ! D65   D(19,14,15,16)       -179.363          calculate D2E/DX2 analytically  !
 ! D66   D(19,14,15,20)          0.2622         calculate D2E/DX2 analytically  !
 ! D67   D(14,15,16,17)         -0.3407         calculate D2E/DX2 analytically  !
 ! D68   D(14,15,16,21)        179.4848         calculate D2E/DX2 analytically  !
 ! D69   D(20,15,16,17)       -179.9659         calculate D2E/DX2 analytically  !
 ! D70   D(20,15,16,21)         -0.1404         calculate D2E/DX2 analytically  !
 ! D71   D(15,16,17,12)         -0.571          calculate D2E/DX2 analytically  !
 ! D72   D(15,16,17,22)        179.1298         calculate D2E/DX2 analytically  !
 ! D73   D(21,16,17,12)        179.602          calculate D2E/DX2 analytically  !
 ! D74   D(21,16,17,22)         -0.6971         calculate D2E/DX2 analytically  !
 ! D75   D(2,28,29,31)           7.4492         calculate D2E/DX2 analytically  !
 ! D76   D(2,28,29,32)         125.9562         calculate D2E/DX2 analytically  !
 ! D77   D(2,28,29,33)        -114.1461         calculate D2E/DX2 analytically  !
 ! D78   D(30,28,29,31)       -156.6388         calculate D2E/DX2 analytically  !
 ! D79   D(30,28,29,32)        -38.1319         calculate D2E/DX2 analytically  !
 ! D80   D(30,28,29,33)         81.7658         calculate D2E/DX2 analytically  !
 ! D81   D(2,28,30,34)          30.7981         calculate D2E/DX2 analytically  !
 ! D82   D(2,28,30,35)         150.4493         calculate D2E/DX2 analytically  !
 ! D83   D(2,28,30,36)         -89.7874         calculate D2E/DX2 analytically  !
 ! D84   D(29,28,30,34)       -164.486          calculate D2E/DX2 analytically  !
 ! D85   D(29,28,30,35)        -44.8349         calculate D2E/DX2 analytically  !
 ! D86   D(29,28,30,36)         74.9284         calculate D2E/DX2 analytically  !
 --------------------------------------------------------------------------------
 Trust Radius=3.00D-02 FncErr=1.00D-07 GrdErr=1.00D-06 EigMax=2.50D+02 EigMin=1.00D-04
 Number of steps in this run=     70 maximum allowed number of steps=    216.
 Search for a saddle point of order  1.
 GradGradGradGradGradGradGradGradGradGradGradGradGradGradGradGradGradGrad

                          Input orientation:                          
 ---------------------------------------------------------------------
 Center     Atomic      Atomic             Coordinates (Angstroms)
 Number     Number       Type             X           Y           Z
 ---------------------------------------------------------------------
      1          6           0       -0.769100   -0.321250   -0.291860
      2          6           0       -2.126350    0.122350   -0.015900
      3          8           0       -2.393520    1.299020    0.310540
      4          6           0        0.284700    0.376490    0.285930
      5          6           0        0.149680    2.313500   -1.733530
      6          1           0       -0.321900    3.252350   -2.023840
      7          1           0        1.153940    2.271790   -2.148590
      8          1           0       -0.437930    1.487470   -2.136090
      9          7           0        0.181830    2.168530   -0.284000
     10          1           0        0.821100    2.805670    0.176500
     11          1           0       -0.765630    2.286240    0.088540
     12          6           0        1.694880   -0.095000    0.080430
     13          6           0        1.972070   -1.428440    0.386350
     14          6           0        3.250570   -1.938680    0.251280
     15          6           0        4.284120   -1.122620   -0.189320
     16          6           0        4.023430    0.205410   -0.480770
     17          6           0        2.739880    0.717200   -0.341440
     18          1           0        1.171250   -2.065980    0.737680
     19          1           0        3.441010   -2.976610    0.492970
     20          1           0        5.285310   -1.519460   -0.298030
     21          1           0        4.820580    0.855870   -0.817230
     22          1           0        2.581060    1.761030   -0.565070
     23         17           0        0.121490    0.820240    2.075570
     24          6           0       -0.510570   -1.268020   -1.451110
     25          1           0       -0.333390   -2.307710   -1.158100
     26          1           0       -1.365340   -1.268840   -2.129930
     27          1           0        0.356290   -0.953270   -2.034030
     28          7           0       -3.149990   -0.766000   -0.183750
     29          6           0       -2.989270   -2.196970   -0.034330
     30          6           0       -4.514940   -0.289450   -0.169210
     31          1           0       -1.998950   -2.426550    0.349450
     32          1           0       -3.724460   -2.567830    0.684570
     33          1           0       -3.136610   -2.727550   -0.979130
     34          1           0       -4.557180    0.725820   -0.553900
     35          1           0       -5.124670   -0.937810   -0.800770
     36          1           0       -4.939190   -0.295520    0.841030
 ---------------------------------------------------------------------
                    Distance matrix (angstroms):
                    1          2          3          4          5
     1  C    0.000000
     2  C    1.454325   0.000000
     3  O    2.372109   1.249998   0.000000
     4  C    1.389668   2.443123   2.832760   0.000000
     5  C    3.140776   3.596068   3.416908   2.801510   0.000000
     6  H    3.996293   4.133372   3.681907   3.738124   1.090003
     7  H    3.724162   4.464164   4.424712   3.205406   1.087452
     8  H    2.604290   3.034719   3.137809   2.760915   1.090718
     9  N    2.665208   3.096195   2.782437   1.883298   1.457116
    10  H    3.539170   3.990575   3.552709   2.490103   2.083567
    11  H    2.635094   2.558298   1.916745   2.188447   2.039234
    12  C    2.502196   3.828618   4.325651   1.501047   3.388062
    13  C    3.033126   4.400432   5.148122   2.472868   4.670879
    14  C    4.366787   5.764590   6.507070   3.762658   5.624591
    15  C    5.117396   6.532545   7.120750   4.297506   5.593308
    16  C    4.825080   6.167884   6.557393   3.820366   4.584691
    17  C    3.659751   4.913249   5.207244   2.556870   3.345927
    18  H    2.805173   4.028751   4.920697   2.637368   5.131309
    19  H    5.039040   6.392026   7.235747   4.609603   6.616300
    20  H    6.171841   7.596568   8.202354   5.379752   6.567110
    21  H    5.736388   7.031360   7.315155   4.692651   4.978112
    22  H    3.953999   5.014635   5.072139   2.813258   2.753567
    23  Cl   2.775045   3.148664   3.109636   1.851044   4.091438
    24  C    1.518905   2.569767   3.638489   2.520749   3.652804
    25  H    2.210484   3.228702   4.405626   3.110014   4.681886
    26  H    2.152192   2.642663   3.688760   3.356504   3.909678
    27  H    2.168204   3.375398   4.258083   2.674996   3.287062
    28  N    2.424485   1.365715   2.254080   3.650065   4.772102
    29  C    2.917842   2.474715   3.563117   4.176619   5.751924
    30  C    3.747982   2.428672   2.693292   4.866947   5.566069
    31  H    2.521130   2.578101   3.746608   3.616093   5.605666
    32  H    3.838579   3.206506   4.106559   4.990120   6.684576
    33  H    3.444956   3.173384   4.292866   4.789656   6.064735
    34  H    3.938854   2.561748   2.399425   4.926576   5.105564
    35  H    4.428332   3.275650   3.701027   5.671824   6.265766
    36  H    4.321314   2.970019   3.050314   5.296108   6.271518
                    6          7          8          9         10
     6  H    0.000000
     7  H    1.776278   0.000000
     8  H    1.772248   1.774645   0.000000
     9  N    2.110794   2.105316   2.068377   0.000000
    10  H    2.519418   2.408704   2.944636   1.013249   0.000000
    11  H    2.364829   2.947831   2.386294   1.024852   1.671902
    12  C    4.438480   3.295882   3.459198   2.746943   3.030942
    13  C    5.742918   4.559272   4.546794   4.073392   4.392773
    14  C    6.699665   5.280463   5.571631   5.154887   5.330739
    15  C    6.612204   5.015853   5.735873   5.260173   5.249552
    16  C    5.526916   3.909670   4.928234   4.318617   4.177113
    17  C    4.316474   2.863171   3.729955   2.941645   2.882999
    18  H    6.175769   5.210288   4.845103   4.466974   4.916350
    19  H    7.700245   6.305096   6.471950   6.139902   6.356008
    20  H    7.562367   5.904775   6.721277   6.296584   6.233867
    21  H    5.800356   4.149891   5.458043   4.850300   4.559063
    22  H    3.574804   2.192050   3.414270   2.449768   2.176846
    23  Cl   4.787162   4.584373   4.300724   2.718289   2.835111
    24  C    4.560412   3.973327   2.840282   3.694785   4.584475
    25  H    5.627069   4.915795   3.920559   4.589796   5.409312
    26  H    4.641248   4.345478   2.908156   4.197226   5.167376
    27  H    4.259963   3.324211   2.568738   3.583110   4.385444
    28  N    5.247014   5.622506   4.030512   4.441007   5.353145
    29  C    6.384990   6.450279   4.949932   5.401463   6.292041
    30  C    5.793581   6.527947   4.862928   5.302310   6.178398
    31  H    6.379256   6.185088   4.892264   5.125604   5.946320
    32  H    7.265493   7.432866   5.933200   6.215331   7.056540
    33  H    6.691279   6.691028   5.136908   5.955405   6.900397
    34  H    5.146035   6.127801   4.477908   4.961096   5.812500
    35  H    6.489988   7.179073   5.443399   6.170522   7.093721
    36  H    6.489548   7.256386   5.683629   5.793279   6.575707
                   11         12         13         14         15
    11  H    0.000000
    12  C    3.424103   0.000000
    13  C    4.624126   1.395881   0.000000
    14  C    5.831492   2.418371   1.383167   0.000000
    15  C    6.098976   2.798738   2.402186   1.388635   0.000000
    16  C    5.252529   2.413988   2.762144   2.393811   1.384401
    17  C    3.864631   1.389125   2.392275   2.768722   2.406814
    18  H    4.807776   2.142645   1.082221   2.139243   3.382191
    19  H    6.749591   3.394530   2.136816   1.082580   2.147937
    20  H    7.158678   3.881173   3.384408   2.148873   1.082442
    21  H    5.837133   3.388207   3.844566   3.378780   2.143941
    22  H    3.450128   2.155651   3.383606   3.847405   3.370021
    23  Cl   2.623819   2.700704   3.366701   4.553110   5.121711
    24  C    3.881796   2.930120   3.092813   4.182594   4.960071
    25  H    4.779678   3.247140   2.910943   3.868760   4.864604
    26  H    4.233185   3.953295   4.182755   5.236933   5.975261
    27  H    4.032175   2.645636   2.948690   3.817137   4.342751
    28  N    3.882716   4.898244   5.196089   6.521625   7.442661
    29  C    5.005881   5.135437   5.038105   6.251711   7.353941
    30  C    4.556088   6.217877   6.609633   7.949838   8.838441
    31  H    4.878477   4.376400   4.094702   5.273056   6.439524
    32  H    5.715936   5.987413   5.817009   7.016738   8.184722
    33  H    5.647969   5.603239   5.445258   6.552274   7.633272
    34  H    4.150119   6.337537   6.939453   8.289079   9.039814
    35  H    5.494233   6.927706   7.212052   8.500188   9.430448
    36  H    4.964910   6.680539   7.018245   8.373766   9.317465
                   16         17         18         19         20
    16  C    0.000000
    17  C    1.388828   0.000000
    18  H    3.844316   3.372120   0.000000
    19  H    3.378259   3.851241   2.457832   0.000000
    20  H    2.144974   3.388768   4.277484   2.480002   0.000000
    21  H    1.082475   2.138906   4.926719   4.278755   2.475426
    22  H    2.123085   1.079266   4.281440   4.929929   4.259800
    23  Cl   4.705106   3.564901   3.349957   5.285821   6.145991
    24  C    4.865153   3.967101   2.873336   4.723739   5.914815
    25  H    5.075079   4.388850   2.432356   4.173674   5.738541
    26  H    5.825117   4.898559   3.910615   5.735598   6.902884
    27  H    4.147659   3.367021   3.095910   4.471592   5.256378
    28  N    7.244985   6.075798   4.605659   6.984700   8.469655
    29  C    7.426217   6.435050   4.233566   6.498799   8.306457
    30  C    8.558371   7.326351   6.025883   8.423565   9.877976
    31  H    6.624616   5.728613   3.214172   5.469582   7.369022
    32  H    8.311358   7.323374   4.921651   7.179678   9.123625
    33  H    7.753502   6.841497   4.684311   6.744938   8.535345
    34  H    8.596688   7.300157   6.502095   8.875526  10.098582
    35  H    9.224808   8.049919   6.578617   8.899514  10.438331
    36  H    9.073403   7.835302   6.362601   8.805518  10.360303
                   21         22         23         24         25
    21  H    0.000000
    22  H    2.428652   0.000000
    23  Cl   5.518243   3.729283   0.000000
    24  C    5.773549   4.417962   4.147023   0.000000
    25  H    6.057049   5.039876   4.521903   1.094625   0.000000
    26  H    6.671070   5.215647   4.925561   1.091526   1.757448
    27  H    4.968247   3.804585   4.482107   1.091013   1.754258
    28  N    8.158538   6.275047   4.280568   2.970650   3.355512
    29  C    8.421788   6.853906   4.819965   3.002360   2.885970
    30  C    9.427811   7.396918   5.269434   4.316926   4.747277
    31  H    7.657768   6.272851   4.244691   2.607582   2.249649
    32  H    9.327102   7.749852   5.310860   4.071821   3.868133
    33  H    8.728344   7.280834   5.703790   3.041230   2.840130
    34  H    9.382358   7.212923   5.367772   4.599504   5.235242
    35  H   10.105719   8.168082   6.235885   4.671392   4.996066
    36  H    9.966375   7.922164   5.327241   5.080584   5.409143
                   26         27         28         29         30
    26  H    0.000000
    27  H    1.752938   0.000000
    28  N    2.688018   3.968955   0.000000
    29  C    2.808935   4.091254   1.447699   0.000000
    30  C    3.837135   5.258050   1.445822   2.446323   0.000000
    31  H    2.808750   3.660422   2.089646   1.086613   3.341618
    32  H    3.895412   5.162375   2.081006   1.093096   2.558283
    33  H    2.567016   4.057245   2.116716   1.093559   2.915492
    34  H    4.080488   5.399288   2.083920   3.357230   1.086528
    35  H    4.001101   5.618015   2.075956   2.594773   1.091334
    36  H    4.748301   6.061412   2.114891   2.860761   1.095723
                   31         32         33         34         35
    31  H    0.000000
    32  H    1.763420   0.000000
    33  H    1.774823   1.771715   0.000000
    34  H    4.159089   3.615987   3.758271   0.000000
    35  H    3.648216   2.612238   2.680926   1.775008   0.000000
    36  H    3.664417   2.581364   3.532286   1.770564   1.772695
                   36
    36  H    0.000000
 Stoichiometry    C13H19ClN2O
 Framework group  C1[X(C13H19ClN2O)]
 Deg. of freedom   102
 Full point group                 C1      NOp   1
 Largest Abelian subgroup         C1      NOp   1
 Largest concise Abelian subgroup C1      NOp   1
                         Standard orientation:                         
 ---------------------------------------------------------------------
 Center     Atomic      Atomic             Coordinates (Angstroms)
 Number     Number       Type             X           Y           Z
 ---------------------------------------------------------------------
      1          6           0       -0.769100   -0.321251   -0.291859
      2          6           0       -2.126350    0.122349   -0.015899
      3          8           0       -2.393519    1.299019    0.310541
      4          6           0        0.284700    0.376489    0.285931
      5          6           0        0.149681    2.313499   -1.733529
      6          1           0       -0.321899    3.252349   -2.023839
      7          1           0        1.153941    2.271789   -2.148589
      8          1           0       -0.437929    1.487469   -2.136089
      9          7           0        0.181831    2.168529   -0.283999
     10          1           0        0.821101    2.805669    0.176501
     11          1           0       -0.765629    2.286239    0.088541
     12          6           0        1.694880   -0.095001    0.080431
     13          6           0        1.972070   -1.428441    0.386351
     14          6           0        3.250570   -1.938682    0.251281
     15          6           0        4.284120   -1.122622   -0.189319
     16          6           0        4.023430    0.205408   -0.480769
     17          6           0        2.739881    0.717198   -0.341439
     18          1           0        1.171250   -2.065981    0.737681
     19          1           0        3.441010   -2.976612    0.492971
     20          1           0        5.285310   -1.519462   -0.298029
     21          1           0        4.820581    0.855868   -0.817229
     22          1           0        2.581061    1.761028   -0.565069
     23         17           0        0.121491    0.820239    2.075571
     24          6           0       -0.510570   -1.268021   -1.451109
     25          1           0       -0.333390   -2.307711   -1.158099
     26          1           0       -1.365340   -1.268841   -2.129929
     27          1           0        0.356290   -0.953271   -2.034029
     28          7           0       -3.149990   -0.766001   -0.183749
     29          6           0       -2.989270   -2.196971   -0.034329
     30          6           0       -4.514940   -0.289451   -0.169209
     31          1           0       -1.998950   -2.426551    0.349451
     32          1           0       -3.724460   -2.567831    0.684571
     33          1           0       -3.136610   -2.727551   -0.979129
     34          1           0       -4.557179    0.725819   -0.553899
     35          1           0       -5.124670   -0.937811   -0.800769
     36          1           0       -4.939190   -0.295521    0.841031
 ---------------------------------------------------------------------
 Rotational constants (GHZ):           0.7282101           0.2823272           0.2551807
 Standard basis: def2TZVP (5D, 7F)
 There are   732 symmetry adapted cartesian basis functions of A   symmetry.
 There are   647 symmetry adapted basis functions of A   symmetry.
   647 basis functions,  1037 primitive gaussians,   732 cartesian basis functions
    68 alpha electrons       68 beta electrons
       nuclear repulsion energy      1412.7490978347 Hartrees.
 NAtoms=   36 NActive=   36 NUniq=   36 SFac= 1.00D+00 NAtFMM=   60 NAOKFM=F Big=F
 Integral buffers will be    131072 words long.
 Raffenetti 2 integral format.
 Two-electron integral symmetry is turned on.
 Nuclear repulsion after empirical dispersion term =     1412.7185358464 Hartrees.
 Force inversion solution in PCM.
 ------------------------------------------------------------------------------
 Polarizable Continuum Model (PCM)
 =================================
 Model                : PCM.
 Atomic radii         : UFF (Universal Force Field).
 Polarization charges : Total charges.
 Charge compensation  : None.
 Solution method      : Matrix inversion.
 Cavity type          : Scaled VdW (van der Waals Surface) (Alpha=1.100).
 Cavity algorithm     : GePol (No added spheres)
                        Default sphere list used, NSphG=   36.
                        Lebedev-Laikov grids with approx.  5.0 points / Ang**2.
                        Smoothing algorithm: York/Karplus (Gamma=1.0000).
                        Polarization charges: spherical gaussians, with
                                              point-specific exponents (IZeta= 3).
                        Self-potential: point-specific (ISelfS= 7).
                        Self-field    : sphere-specific E.n sum rule (ISelfD= 2).
 1st derivatives      : Analytical E(r).r(x)/FMM algorithm (CHGder, D1EAlg=3).
                        Cavity 1st derivative terms included.
 2nd derivatives      : Analytical E(r).r(xy)/FMM algorithm (CHGder, D2EAlg=3).
                        Cavity 2nd derivative terms included.
 Solvent              : Water, Eps=  78.355300 Eps(inf)=   1.777849
 ------------------------------------------------------------------------------
 One-electron integrals computed using PRISM.
   1 Symmetry operations used in ECPInt.
 ECPInt:  NShTT=   35245 NPrTT=  106936 LenC2=   32079 LenP2D=   70819.
 LDataN:  DoStor=T MaxTD1= 6 Len=  172
 NBasis=   647 RedAO= T EigKep=  6.75D-06  NBF=   647
 NBsUse=   647 1.00D-06 EigRej= -1.00D+00 NBFU=   647
 ExpMin= 9.52D-02 ExpMax= 6.95D+04 ExpMxC= 2.37D+03 IAcc=3 IRadAn=         5 AccDes= 0.00D+00
 Harris functional with IExCor= 4639 and IRadAn=       5 diagonalized for initial guess.
 HarFok:  IExCor= 4639 AccDes= 0.00D+00 IRadAn=         5 IDoV= 1 UseB2=F ITyADJ=14
 ICtDFT=  3500011 ScaDFX=  1.000000  1.000000  1.000000  1.000000
 FoFCou: FMM=F IPFlag=           0 FMFlag=      100000 FMFlg1=           0
         NFxFlg=           0 DoJE=T BraDBF=F KetDBF=T FulRan=T
         wScrn=  0.000000 ICntrl=       500 IOpCl=  0 I1Cent=   200000004 NGrid=           0
         NMat0=    1 NMatS0=      1 NMatT0=    0 NMatD0=    1 NMtDS0=    0 NMtDT0=    0
 Petite list used in FoFCou.
 Requested convergence on RMS density matrix=1.00D-08 within 128 cycles.
 Requested convergence on MAX density matrix=1.00D-06.
 Requested convergence on             energy=1.00D-06.
 No special actions if energy rises.
 Inv3:  Mode=1 IEnd=    18095808.
 Iteration    1 A*A^-1 deviation from unit magnitude is 6.88D-15 for   2455.
 Iteration    1 A*A^-1 deviation from orthogonality  is 1.72D-15 for   2455   2295.
 Iteration    1 A^-1*A deviation from unit magnitude is 6.66D-15 for   2455.
 Iteration    1 A^-1*A deviation from orthogonality  is 1.70D-15 for   1867    349.
 Error on total polarization charges =  0.01591
 SCF Done:  E(RwB97XD) =  -1151.75284574     A.U. after   15 cycles
            NFock= 15  Conv=0.36D-08     -V/T= 2.0035
 DoSCS=F DFT=T ScalE2(SS,OS)=  1.000000  1.000000
 Range of M.O.s used for correlation:     1   647
 NBasis=   647 NAE=    68 NBE=    68 NFC=     0 NFV=     0
 NROrb=    647 NOA=    68 NOB=    68 NVA=   579 NVB=   579

 **** Warning!!: The largest alpha MO coefficient is  0.57184148D+02

   1 Symmetry operations used in ECPInt.
 ECPInt:  NShTT=   35245 NPrTT=  106936 LenC2=   32079 LenP2D=   70819.
 LDataN:  DoStor=T MaxTD1= 7 Len=  274
 Number of processors reduced to  14 by ecpmxn.
 Symmetrizing basis deriv contribution to polar:
 IMax=3 JMax=2 DiffMx= 0.00D+00
 G2DrvN: will do    37 centers at a time, making    1 passes.
 Calling FoFCou, ICntrl=  3107 FMM=F I1Cent=   0 AccDes= 0.00D+00.
 NEqPCM:  Using equilibrium solvation (IEInf=0, Eps=  78.3553, EpsInf=   1.7778)
 G2PCM: DoFxE=T DoFxN=T DoGrad=T DoDP/DQ/DG/TGxP=FFFF NFrqRd=   0 IEInf=0 SqF1=F DoCFld=F IF1Alg=4.
 End of G2Drv F.D. properties file   721 does not exist.
 End of G2Drv F.D. properties file   722 does not exist.
 End of G2Drv F.D. properties file   788 does not exist.
          IDoAtm=111111111111111111111111111111111111
 NEqPCM:  Using equilibrium solvation (IEInf=0, Eps=  78.3553, EpsInf=   1.7778)
          Differentiating once with respect to nuclear coordinates.
 CalDSu exits because no D1Ps are significant.
          There are   111 degrees of freedom in the 1st order CPHF.  IDoFFX=6 NUNeed=     0.
    105 vectors produced by pass  0 Test12= 3.94D-14 1.00D-09 XBig12= 1.27D-01 1.51D-01.
 AX will form   105 AO Fock derivatives at one time.
    105 vectors produced by pass  1 Test12= 3.94D-14 1.00D-09 XBig12= 2.87D-02 4.61D-02.
    105 vectors produced by pass  2 Test12= 3.94D-14 1.00D-09 XBig12= 7.22D-04 3.35D-03.
    105 vectors produced by pass  3 Test12= 3.94D-14 1.00D-09 XBig12= 1.17D-05 5.10D-04.
    105 vectors produced by pass  4 Test12= 3.94D-14 1.00D-09 XBig12= 1.38D-07 5.09D-05.
    105 vectors produced by pass  5 Test12= 3.94D-14 1.00D-09 XBig12= 1.29D-09 4.04D-06.
    105 vectors produced by pass  6 Test12= 3.94D-14 1.00D-09 XBig12= 9.44D-12 2.45D-07.
     47 vectors produced by pass  7 Test12= 3.94D-14 1.00D-09 XBig12= 5.77D-14 1.78D-08.
     14 vectors produced by pass  8 Test12= 3.94D-14 1.00D-09 XBig12= 4.47D-15 5.77D-09.
      7 vectors produced by pass  9 Test12= 3.94D-14 1.00D-09 XBig12= 2.92D-15 3.84D-09.
      4 vectors produced by pass 10 Test12= 3.94D-14 1.00D-09 XBig12= 1.69D-15 3.73D-09.
      3 vectors produced by pass 11 Test12= 3.94D-14 1.00D-09 XBig12= 1.99D-15 3.51D-09.
 InvSVY:  IOpt=1 It=  1 EMax= 6.11D-16
 Solved reduced A of dimension   810 with   111 vectors.
 End of Minotr F.D. properties file   721 does not exist.
 End of Minotr F.D. properties file   722 does not exist.
 End of Minotr F.D. properties file   788 does not exist.

 **********************************************************************

            Population analysis using the SCF density.

 **********************************************************************

 Orbital symmetries:
       Occupied  (A) (A) (A) (A) (A) (A) (A) (A) (A) (A) (A) (A)
                 (A) (A) (A) (A) (A) (A) (A) (A) (A) (A) (A) (A)
                 (A) (A) (A) (A) (A) (A) (A) (A) (A) (A) (A) (A)
                 (A) (A) (A) (A) (A) (A) (A) (A) (A) (A) (A) (A)
                 (A) (A) (A) (A) (A) (A) (A) (A) (A) (A) (A) (A)
                 (A) (A) (A) (A) (A) (A) (A) (A)
       Virtual   (A) (A) (A) (A) (A) (A) (A) (A) (A) (A) (A) (A)
                 (A) (A) (A) (A) (A) (A) (A) (A) (A) (A) (A) (A)
                 (A) (A) (A) (A) (A) (A) (A) (A) (A) (A) (A) (A)
                 (A) (A) (A) (A) (A) (A) (A) (A) (A) (A) (A) (A)
                 (A) (A) (A) (A) (A) (A) (A) (A) (A) (A) (A) (A)
                 (A) (A) (A) (A) (A) (A) (A) (A) (A) (A) (A) (A)
                 (A) (A) (A) (A) (A) (A) (A) (A) (A) (A) (A) (A)
                 (A) (A) (A) (A) (A) (A) (A) (A) (A) (A) (A) (A)
                 (A) (A) (A) (A) (A) (A) (A) (A) (A) (A) (A) (A)
                 (A) (A) (A) (A) (A) (A) (A) (A) (A) (A) (A) (A)
                 (A) (A) (A) (A) (A) (A) (A) (A) (A) (A) (A) (A)
                 (A) (A) (A) (A) (A) (A) (A) (A) (A) (A) (A) (A)
                 (A) (A) (A) (A) (A) (A) (A) (A) (A) (A) (A) (A)
                 (A) (A) (A) (A) (A) (A) (A) (A) (A) (A) (A) (A)
                 (A) (A) (A) (A) (A) (A) (A) (A) (A) (A) (A) (A)
                 (A) (A) (A) (A) (A) (A) (A) (A) (A) (A) (A) (A)
                 (A) (A) (A) (A) (A) (A) (A) (A) (A) (A) (A) (A)
                 (A) (A) (A) (A) (A) (A) (A) (A) (A) (A) (A) (A)
                 (A) (A) (A) (A) (A) (A) (A) (A) (A) (A) (A) (A)
                 (A) (A) (A) (A) (A) (A) (A) (A) (A) (A) (A) (A)
                 (A) (A) (A) (A) (A) (A) (A) (A) (A) (A) (A) (A)
                 (A) (A) (A) (A) (A) (A) (A) (A) (A) (A) (A) (A)
                 (A) (A) (A) (A) (A) (A) (A) (A) (A) (A) (A) (A)
                 (A) (A) (A) (A) (A) (A) (A) (A) (A) (A) (A) (A)
                 (A) (A) (A) (A) (A) (A) (A) (A) (A) (A) (A) (A)
                 (A) (A) (A) (A) (A) (A) (A) (A) (A) (A) (A) (A)
                 (A) (A) (A) (A) (A) (A) (A) (A) (A) (A) (A) (A)
                 (A) (A) (A) (A) (A) (A) (A) (A) (A) (A) (A) (A)
                 (A) (A) (A) (A) (A) (A) (A) (A) (A) (A) (A) (A)
                 (A) (A) (A) (A) (A) (A) (A) (A) (A) (A) (A) (A)
                 (A) (A) (A) (A) (A) (A) (A) (A) (A) (A) (A) (A)
                 (A) (A) (A) (A) (A) (A) (A) (A) (A) (A) (A) (A)
                 (A) (A) (A) (A) (A) (A) (A) (A) (A) (A) (A) (A)
                 (A) (A) (A) (A) (A) (A) (A) (A) (A) (A) (A) (A)
                 (A) (A) (A) (A) (A) (A) (A) (A) (A) (A) (A) (A)
                 (A) (A) (A) (A) (A) (A) (A) (A) (A) (A) (A) (A)
                 (A) (A) (A) (A) (A) (A) (A) (A) (A) (A) (A) (A)
                 (A) (A) (A) (A) (A) (A) (A) (A) (A) (A) (A) (A)
                 (A) (A) (A) (A) (A) (A) (A) (A) (A) (A) (A) (A)
                 (A) (A) (A) (A) (A) (A) (A) (A) (A) (A) (A) (A)
                 (A) (A) (A) (A) (A) (A) (A) (A) (A) (A) (A) (A)
                 (A) (A) (A) (A) (A) (A) (A) (A) (A) (A) (A) (A)
                 (A) (A) (A) (A) (A) (A) (A) (A) (A) (A) (A) (A)
                 (A) (A) (A) (A) (A) (A) (A) (A) (A) (A) (A) (A)
                 (A) (A) (A) (A) (A) (A) (A) (A) (A) (A) (A) (A)
                 (A) (A) (A) (A) (A) (A) (A) (A) (A) (A) (A) (A)
                 (A) (A) (A) (A) (A) (A) (A) (A) (A) (A) (A) (A)
                 (A) (A) (A) (A) (A) (A) (A) (A) (A) (A) (A) (A)
                 (A) (A) (A)
 The electronic state is 1-A.
 Alpha  occ. eigenvalues -- -101.68121 -19.20023 -14.47818 -14.45016 -10.39457
 Alpha  occ. eigenvalues --  -10.37024 -10.31386 -10.31198 -10.30518 -10.30136
 Alpha  occ. eigenvalues --  -10.29789 -10.29469 -10.29418 -10.29364 -10.29312
 Alpha  occ. eigenvalues --  -10.27158 -10.25538  -9.56719  -7.31319  -7.30522
 Alpha  occ. eigenvalues --   -7.30493  -1.12510  -1.03983  -1.02376  -0.98038
 Alpha  occ. eigenvalues --   -0.94535  -0.88177  -0.85885  -0.85453  -0.81195
 Alpha  occ. eigenvalues --   -0.78879  -0.78516  -0.76915  -0.72051  -0.71068
 Alpha  occ. eigenvalues --   -0.66763  -0.64392  -0.61487  -0.59942  -0.57973
 Alpha  occ. eigenvalues --   -0.57298  -0.56151  -0.55696  -0.54990  -0.54685
 Alpha  occ. eigenvalues --   -0.53050  -0.51689  -0.51269  -0.50947  -0.49120
 Alpha  occ. eigenvalues --   -0.48387  -0.48308  -0.47456  -0.46666  -0.46457
 Alpha  occ. eigenvalues --   -0.45737  -0.45016  -0.44807  -0.44297  -0.43300
 Alpha  occ. eigenvalues --   -0.42763  -0.39286  -0.38207  -0.34218  -0.33914
 Alpha  occ. eigenvalues --   -0.33348  -0.31438  -0.26043
 Alpha virt. eigenvalues --    0.03118   0.04872   0.06384   0.09301   0.10534
 Alpha virt. eigenvalues --    0.12141   0.13244   0.13741   0.14794   0.15356
 Alpha virt. eigenvalues --    0.15920   0.16526   0.17034   0.17817   0.18179
 Alpha virt. eigenvalues --    0.18757   0.19206   0.19422   0.20223   0.20523
 Alpha virt. eigenvalues --    0.20753   0.22098   0.22762   0.23071   0.23515
 Alpha virt. eigenvalues --    0.23864   0.24712   0.25375   0.25472   0.26170
 Alpha virt. eigenvalues --    0.26481   0.26939   0.27579   0.28350   0.28951
 Alpha virt. eigenvalues --    0.29352   0.29883   0.30753   0.31370   0.32025
 Alpha virt. eigenvalues --    0.32470   0.32921   0.33431   0.34127   0.34481
 Alpha virt. eigenvalues --    0.35322   0.35946   0.36880   0.37403   0.38290
 Alpha virt. eigenvalues --    0.38928   0.39278   0.39904   0.40466   0.40764
 Alpha virt. eigenvalues --    0.41211   0.41351   0.42740   0.42883   0.43705
 Alpha virt. eigenvalues --    0.44443   0.44705   0.45600   0.45912   0.45988
 Alpha virt. eigenvalues --    0.47147   0.47368   0.47975   0.48555   0.49000
 Alpha virt. eigenvalues --    0.49444   0.50140   0.50420   0.50684   0.51533
 Alpha virt. eigenvalues --    0.51817   0.52220   0.52765   0.53198   0.53399
 Alpha virt. eigenvalues --    0.53576   0.53963   0.54332   0.54804   0.55334
 Alpha virt. eigenvalues --    0.55691   0.56001   0.56463   0.57336   0.57831
 Alpha virt. eigenvalues --    0.58491   0.58771   0.59443   0.59913   0.60649
 Alpha virt. eigenvalues --    0.61372   0.61926   0.62722   0.63655   0.64345
 Alpha virt. eigenvalues --    0.64569   0.65567   0.66170   0.66755   0.67734
 Alpha virt. eigenvalues --    0.68908   0.69765   0.70844   0.71324   0.71505
 Alpha virt. eigenvalues --    0.71800   0.73077   0.73735   0.74995   0.75289
 Alpha virt. eigenvalues --    0.76652   0.76929   0.77509   0.78863   0.79710
 Alpha virt. eigenvalues --    0.80365   0.80733   0.82223   0.82483   0.83213
 Alpha virt. eigenvalues --    0.84360   0.85227   0.85827   0.86718   0.87329
 Alpha virt. eigenvalues --    0.88368   0.88629   0.89783   0.91619   0.92813
 Alpha virt. eigenvalues --    0.93816   0.94106   0.95333   0.96129   0.97108
 Alpha virt. eigenvalues --    0.98652   0.99221   0.99880   1.00473   1.01109
 Alpha virt. eigenvalues --    1.01981   1.03130   1.04645   1.05279   1.06949
 Alpha virt. eigenvalues --    1.08093   1.09176   1.09667   1.10419   1.12030
 Alpha virt. eigenvalues --    1.12382   1.12717   1.13812   1.14537   1.14626
 Alpha virt. eigenvalues --    1.15801   1.17007   1.17336   1.18133   1.19473
 Alpha virt. eigenvalues --    1.20986   1.21850   1.23093   1.23674   1.24272
 Alpha virt. eigenvalues --    1.26319   1.27018   1.27605   1.28221   1.29936
 Alpha virt. eigenvalues --    1.30886   1.31196   1.32081   1.34108   1.35670
 Alpha virt. eigenvalues --    1.36204   1.36764   1.37414   1.39504   1.40095
 Alpha virt. eigenvalues --    1.41037   1.41967   1.43096   1.44523   1.46559
 Alpha virt. eigenvalues --    1.48940   1.49150   1.51606   1.51979   1.52933
 Alpha virt. eigenvalues --    1.53664   1.54439   1.55291   1.56584   1.57119
 Alpha virt. eigenvalues --    1.58353   1.58790   1.59971   1.60217   1.61327
 Alpha virt. eigenvalues --    1.61726   1.62511   1.63313   1.63619   1.64883
 Alpha virt. eigenvalues --    1.65339   1.65580   1.66389   1.67035   1.67864
 Alpha virt. eigenvalues --    1.68142   1.68539   1.69234   1.69620   1.70747
 Alpha virt. eigenvalues --    1.71474   1.72065   1.73639   1.73765   1.75260
 Alpha virt. eigenvalues --    1.75969   1.76352   1.78574   1.78857   1.78966
 Alpha virt. eigenvalues --    1.80193   1.80783   1.81573   1.83213   1.83715
 Alpha virt. eigenvalues --    1.84447   1.85008   1.86557   1.89080   1.90134
 Alpha virt. eigenvalues --    1.90678   1.92547   1.92646   1.93532   1.94629
 Alpha virt. eigenvalues --    1.95625   1.96414   1.97596   1.98667   1.99242
 Alpha virt. eigenvalues --    1.99901   2.00313   2.00975   2.02247   2.02860
 Alpha virt. eigenvalues --    2.04758   2.05363   2.06894   2.08100   2.08807
 Alpha virt. eigenvalues --    2.10112   2.10714   2.11931   2.12586   2.14256
 Alpha virt. eigenvalues --    2.14972   2.15150   2.15899   2.16758   2.18315
 Alpha virt. eigenvalues --    2.18982   2.20195   2.21007   2.22695   2.23313
 Alpha virt. eigenvalues --    2.24317   2.24508   2.25615   2.26337   2.26927
 Alpha virt. eigenvalues --    2.27882   2.28934   2.29612   2.30624   2.32040
 Alpha virt. eigenvalues --    2.32441   2.33433   2.33996   2.35818   2.36477
 Alpha virt. eigenvalues --    2.37354   2.37601   2.38094   2.39464   2.40706
 Alpha virt. eigenvalues --    2.41743   2.43050   2.43720   2.44695   2.45730
 Alpha virt. eigenvalues --    2.46084   2.46798   2.47631   2.48082   2.49672
 Alpha virt. eigenvalues --    2.50197   2.52817   2.54020   2.55438   2.55676
 Alpha virt. eigenvalues --    2.56050   2.56660   2.57360   2.58701   2.59934
 Alpha virt. eigenvalues --    2.61171   2.61968   2.62569   2.63222   2.63927
 Alpha virt. eigenvalues --    2.65442   2.66423   2.67151   2.68068   2.68561
 Alpha virt. eigenvalues --    2.69088   2.70109   2.70753   2.71490   2.72133
 Alpha virt. eigenvalues --    2.72946   2.74157   2.75519   2.76450   2.77020
 Alpha virt. eigenvalues --    2.77792   2.78324   2.78865   2.80201   2.80412
 Alpha virt. eigenvalues --    2.82004   2.82519   2.83591   2.85061   2.85289
 Alpha virt. eigenvalues --    2.85758   2.87098   2.87348   2.88216   2.89687
 Alpha virt. eigenvalues --    2.90559   2.91814   2.91850   2.93105   2.93606
 Alpha virt. eigenvalues --    2.94206   2.95520   2.95753   2.96834   2.97423
 Alpha virt. eigenvalues --    2.98921   2.99885   3.00646   3.03155   3.04155
 Alpha virt. eigenvalues --    3.05477   3.06344   3.07523   3.09784   3.10838
 Alpha virt. eigenvalues --    3.12339   3.12634   3.13722   3.14670   3.15411
 Alpha virt. eigenvalues --    3.16530   3.16898   3.18005   3.18440   3.19884
 Alpha virt. eigenvalues --    3.21238   3.22471   3.22726   3.23416   3.23791
 Alpha virt. eigenvalues --    3.25503   3.26002   3.26700   3.27362   3.28291
 Alpha virt. eigenvalues --    3.28966   3.29818   3.30513   3.31458   3.32578
 Alpha virt. eigenvalues --    3.33224   3.33765   3.34790   3.35653   3.37146
 Alpha virt. eigenvalues --    3.37258   3.37976   3.38642   3.39113   3.40388
 Alpha virt. eigenvalues --    3.40646   3.41479   3.41827   3.42447   3.42768
 Alpha virt. eigenvalues --    3.44377   3.44521   3.46095   3.46616   3.47430
 Alpha virt. eigenvalues --    3.48492   3.50127   3.51027   3.51242   3.52519
 Alpha virt. eigenvalues --    3.53226   3.54428   3.54667   3.55625   3.56314
 Alpha virt. eigenvalues --    3.57510   3.57638   3.58866   3.59766   3.60778
 Alpha virt. eigenvalues --    3.61849   3.63015   3.63932   3.64662   3.64993
 Alpha virt. eigenvalues --    3.65558   3.67518   3.68585   3.70434   3.70582
 Alpha virt. eigenvalues --    3.71486   3.74277   3.74853   3.75833   3.76688
 Alpha virt. eigenvalues --    3.79126   3.80364   3.81785   3.82789   3.83003
 Alpha virt. eigenvalues --    3.83915   3.85336   3.88026   3.89739   3.92131
 Alpha virt. eigenvalues --    3.93911   3.94280   3.96357   3.97029   3.99206
 Alpha virt. eigenvalues --    4.01357   4.01664   4.03173   4.06814   4.06971
 Alpha virt. eigenvalues --    4.08459   4.10562   4.13789   4.15548   4.17365
 Alpha virt. eigenvalues --    4.18452   4.19961   4.21281   4.23163   4.23979
 Alpha virt. eigenvalues --    4.25620   4.27714   4.28676   4.30119   4.30500
 Alpha virt. eigenvalues --    4.30922   4.31349   4.32967   4.34211   4.36279
 Alpha virt. eigenvalues --    4.37704   4.39883   4.40240   4.41214   4.42797
 Alpha virt. eigenvalues --    4.44325   4.45615   4.46731   4.48127   4.49761
 Alpha virt. eigenvalues --    4.51702   4.53663   4.55249   4.56398   4.57633
 Alpha virt. eigenvalues --    4.59764   4.61262   4.67736   4.68634   4.70694
 Alpha virt. eigenvalues --    4.74817   4.78053   4.78995   4.80693   4.85014
 Alpha virt. eigenvalues --    4.85702   4.93560   4.95715   4.98024   5.00290
 Alpha virt. eigenvalues --    5.01064   5.03048   5.05738   5.06974   5.09631
 Alpha virt. eigenvalues --    5.12357   5.17353   5.19526   5.19660   5.21645
 Alpha virt. eigenvalues --    5.23789   5.25018   5.27711   5.30858   5.32141
 Alpha virt. eigenvalues --    5.34050   5.35364   5.38129   5.39189   5.42081
 Alpha virt. eigenvalues --    5.42607   5.44522   5.46287   5.51833   5.53502
 Alpha virt. eigenvalues --    5.53935   5.62921   5.65140   5.66928   5.72376
 Alpha virt. eigenvalues --    5.76743   5.79885   5.81463   5.92736   5.94048
 Alpha virt. eigenvalues --    6.08529   6.23342   6.42197   6.59022   6.75283
 Alpha virt. eigenvalues --    6.83643   6.95638   7.19505   7.26399  10.92512
 Alpha virt. eigenvalues --   10.99282  11.47433  22.22464  22.52626  22.53917
 Alpha virt. eigenvalues --   22.58385  22.64963  22.66275  22.74489  22.77713
 Alpha virt. eigenvalues --   22.88760  22.95950  23.06349  23.37727  23.56443
 Alpha virt. eigenvalues --   25.83258  32.27988  32.92170  44.19958
          Condensed to atoms (all electrons):
               1          2          3          4          5          6
     1  C    6.373991   0.157503  -0.151129   0.262386  -0.004326  -0.002558
     2  C    0.157503   4.717702   0.530285  -0.018271  -0.003084   0.000364
     3  O   -0.151129   0.530285   8.256895   0.017972   0.011750  -0.000237
     4  C    0.262386  -0.018271   0.017972   5.329328  -0.039798   0.004572
     5  C   -0.004326  -0.003084   0.011750  -0.039798   4.878539   0.412840
     6  H   -0.002558   0.000364  -0.000237   0.004572   0.412840   0.503139
     7  H   -0.003284   0.000134   0.000103  -0.005129   0.418379  -0.018140
     8  H    0.029834  -0.003580  -0.002707  -0.004982   0.411210  -0.023625
     9  N   -0.050520   0.008688  -0.042650   0.057957   0.243972  -0.022934
    10  H    0.009786  -0.000188   0.000892  -0.004241  -0.024586  -0.003062
    11  H   -0.018509  -0.011784   0.049529  -0.003338  -0.013966  -0.007143
    12  C   -0.078390   0.000508   0.006920   0.199088   0.017010  -0.000325
    13  C    0.015611   0.002934   0.000226  -0.144347  -0.000954   0.000049
    14  C   -0.000907  -0.000556  -0.000002   0.008998   0.000270  -0.000006
    15  C    0.001164   0.000027   0.000000  -0.007837  -0.000363   0.000003
    16  C   -0.002607   0.000034   0.000001   0.010520   0.001352  -0.000003
    17  C    0.011463  -0.000903   0.000338  -0.137594  -0.011338   0.000610
    18  H    0.000390   0.001000   0.000064   0.002519  -0.000037   0.000001
    19  H   -0.000094  -0.000004  -0.000000  -0.000239  -0.000000  -0.000000
    20  H   -0.000002   0.000000   0.000000   0.000092   0.000000   0.000000
    21  H   -0.000006   0.000001   0.000000  -0.000373   0.000080  -0.000001
    22  H    0.002780  -0.000189   0.000073  -0.013578  -0.006129   0.000124
    23  Cl  -0.046251  -0.018912  -0.013677   0.236017   0.003519  -0.000336
    24  C    0.208694  -0.036000   0.007279  -0.085305   0.004098   0.000180
    25  H   -0.061299  -0.002304  -0.000542  -0.000636  -0.000233  -0.000006
    26  H   -0.064636   0.002448   0.000476   0.005416   0.000393  -0.000001
    27  H   -0.050472  -0.002160  -0.000083  -0.006476   0.001451   0.000116
    28  N   -0.126969   0.472558  -0.100508   0.007655  -0.000012  -0.000004
    29  C   -0.008102  -0.059485   0.002957  -0.000724  -0.000014  -0.000000
    30  C    0.007745  -0.064553  -0.002642   0.000937  -0.000146   0.000005
    31  H    0.011883  -0.015820   0.000488   0.004857  -0.000007   0.000000
    32  H   -0.003570   0.002431   0.000209   0.000933  -0.000002   0.000000
    33  H   -0.002854   0.005675  -0.000235  -0.001443   0.000014  -0.000000
    34  H    0.003323  -0.013381   0.011809  -0.001000   0.000126  -0.000001
    35  H    0.002803   0.006658   0.001701  -0.000122  -0.000002  -0.000000
    36  H   -0.003124  -0.004068   0.001707   0.000366  -0.000008   0.000000
               7          8          9         10         11         12
     1  C   -0.003284   0.029834  -0.050520   0.009786  -0.018509  -0.078390
     2  C    0.000134  -0.003580   0.008688  -0.000188  -0.011784   0.000508
     3  O    0.000103  -0.002707  -0.042650   0.000892   0.049529   0.006920
     4  C   -0.005129  -0.004982   0.057957  -0.004241  -0.003338   0.199088
     5  C    0.418379   0.411210   0.243972  -0.024586  -0.013966   0.017010
     6  H   -0.018140  -0.023625  -0.022934  -0.003062  -0.007143  -0.000325
     7  H    0.516261  -0.022961  -0.033767  -0.006151   0.005077   0.006908
     8  H   -0.022961   0.515893  -0.048354   0.006417  -0.002687  -0.002008
     9  N   -0.033767  -0.048354   6.598692   0.337338   0.344762  -0.090364
    10  H   -0.006151   0.006417   0.337338   0.420236  -0.015052  -0.001995
    11  H    0.005077  -0.002687   0.344762  -0.015052   0.388028   0.007683
    12  C    0.006908  -0.002008  -0.090364  -0.001995   0.007683   5.571931
    13  C   -0.000581   0.000129   0.009899   0.000182  -0.000602   0.341127
    14  C    0.000104  -0.000003  -0.000600  -0.000114   0.000041   0.043145
    15  C   -0.000185   0.000039   0.000214   0.000146  -0.000017  -0.110924
    16  C    0.001275  -0.000329   0.002255  -0.001210   0.000058   0.023187
    17  C   -0.002442  -0.001481   0.041653  -0.003498  -0.000719   0.125598
    18  H   -0.000004  -0.000031   0.000587  -0.000021  -0.000029  -0.075274
    19  H    0.000001  -0.000000   0.000000  -0.000000   0.000000   0.015622
    20  H   -0.000001   0.000000  -0.000000   0.000001  -0.000000  -0.004359
    21  H    0.000103  -0.000005  -0.000031  -0.000038   0.000002   0.015016
    22  H   -0.002248   0.000522   0.007314   0.002121  -0.000002  -0.082565
    23  Cl   0.000098   0.000958  -0.073880   0.006498   0.001258  -0.041885
    24  C    0.000346  -0.008003   0.011460  -0.000698  -0.000411  -0.014332
    25  H    0.000005   0.000838  -0.001342   0.000042   0.000006   0.003189
    26  H   -0.000078  -0.000491   0.000962  -0.000012   0.000030  -0.001825
    27  H   -0.000452  -0.003074   0.002369  -0.000134  -0.000162  -0.011585
    28  N   -0.000028   0.000413  -0.000923   0.000038   0.001299   0.000065
    29  C    0.000002   0.000073  -0.000193   0.000006  -0.000102   0.001161
    30  C   -0.000002   0.000047   0.000064  -0.000003  -0.000182  -0.000057
    31  H   -0.000001  -0.000005   0.000062  -0.000002  -0.000037  -0.000496
    32  H   -0.000000  -0.000002   0.000007  -0.000000   0.000001  -0.000062
    33  H    0.000001  -0.000005  -0.000006   0.000000   0.000011   0.000103
    34  H    0.000003  -0.000025  -0.000012  -0.000001   0.000033  -0.000001
    35  H    0.000000   0.000003  -0.000003   0.000000  -0.000000   0.000001
    36  H   -0.000000  -0.000002   0.000016  -0.000000  -0.000020  -0.000014
              13         14         15         16         17         18
     1  C    0.015611  -0.000907   0.001164  -0.002607   0.011463   0.000390
     2  C    0.002934  -0.000556   0.000027   0.000034  -0.000903   0.001000
     3  O    0.000226  -0.000002   0.000000   0.000001   0.000338   0.000064
     4  C   -0.144347   0.008998  -0.007837   0.010520  -0.137594   0.002519
     5  C   -0.000954   0.000270  -0.000363   0.001352  -0.011338  -0.000037
     6  H    0.000049  -0.000006   0.000003  -0.000003   0.000610   0.000001
     7  H   -0.000581   0.000104  -0.000185   0.001275  -0.002442  -0.000004
     8  H    0.000129  -0.000003   0.000039  -0.000329  -0.001481  -0.000031
     9  N    0.009899  -0.000600   0.000214   0.002255   0.041653   0.000587
    10  H    0.000182  -0.000114   0.000146  -0.001210  -0.003498  -0.000021
    11  H   -0.000602   0.000041  -0.000017   0.000058  -0.000719  -0.000029
    12  C    0.341127   0.043145  -0.110924   0.023187   0.125598  -0.075274
    13  C    5.210170   0.393897   0.048109  -0.082849   0.081717   0.454607
    14  C    0.393897   5.021096   0.381929   0.032934  -0.111573  -0.043622
    15  C    0.048109   0.381929   5.009565   0.402876   0.059075   0.009344
    16  C   -0.082849   0.032934   0.402876   4.986960   0.399464  -0.003736
    17  C    0.081717  -0.111573   0.059075   0.399464   5.318412   0.012273
    18  H    0.454607  -0.043622   0.009344  -0.003736   0.012273   0.474292
    19  H   -0.062174   0.459550  -0.058939   0.011992  -0.004709  -0.006296
    20  H    0.012297  -0.059872   0.457961  -0.059933   0.013506  -0.000038
    21  H   -0.003967   0.011364  -0.056296   0.453088  -0.057181   0.000011
    22  H    0.005803  -0.001884   0.007036  -0.010545   0.443158   0.000040
    23  Cl   0.027570  -0.002736   0.001643  -0.002585   0.007794   0.003794
    24  C   -0.008689   0.001306   0.000301  -0.000232   0.008882  -0.002713
    25  H    0.002968  -0.000130   0.000314  -0.000229  -0.001374  -0.003143
    26  H    0.001727  -0.000084   0.000005  -0.000015   0.000290   0.000373
    27  H   -0.007133  -0.000997   0.000468  -0.000171   0.006602   0.000619
    28  N    0.000234  -0.000007   0.000001  -0.000002   0.000045   0.000024
    29  C   -0.000650   0.000008   0.000001  -0.000003  -0.000013   0.000160
    30  C   -0.000006  -0.000000   0.000000  -0.000000   0.000000   0.000005
    31  H   -0.000343   0.000004  -0.000001   0.000001   0.000027   0.001197
    32  H   -0.000002  -0.000000   0.000000   0.000000   0.000000   0.000008
    33  H    0.000041   0.000000   0.000000  -0.000000  -0.000001  -0.000024
    34  H   -0.000001  -0.000000   0.000000  -0.000000   0.000000  -0.000001
    35  H    0.000000   0.000000  -0.000000  -0.000000  -0.000000  -0.000001
    36  H   -0.000001   0.000000  -0.000000   0.000000   0.000000   0.000001
              19         20         21         22         23         24
     1  C   -0.000094  -0.000002  -0.000006   0.002780  -0.046251   0.208694
     2  C   -0.000004   0.000000   0.000001  -0.000189  -0.018912  -0.036000
     3  O   -0.000000   0.000000   0.000000   0.000073  -0.013677   0.007279
     4  C   -0.000239   0.000092  -0.000373  -0.013578   0.236017  -0.085305
     5  C   -0.000000   0.000000   0.000080  -0.006129   0.003519   0.004098
     6  H   -0.000000   0.000000  -0.000001   0.000124  -0.000336   0.000180
     7  H    0.000001  -0.000001   0.000103  -0.002248   0.000098   0.000346
     8  H   -0.000000   0.000000  -0.000005   0.000522   0.000958  -0.008003
     9  N    0.000000  -0.000000  -0.000031   0.007314  -0.073880   0.011460
    10  H   -0.000000   0.000001  -0.000038   0.002121   0.006498  -0.000698
    11  H    0.000000  -0.000000   0.000002  -0.000002   0.001258  -0.000411
    12  C    0.015622  -0.004359   0.015016  -0.082565  -0.041885  -0.014332
    13  C   -0.062174   0.012297  -0.003967   0.005803   0.027570  -0.008689
    14  C    0.459550  -0.059872   0.011364  -0.001884  -0.002736   0.001306
    15  C   -0.058939   0.457961  -0.056296   0.007036   0.001643   0.000301
    16  C    0.011992  -0.059933   0.453088  -0.010545  -0.002585  -0.000232
    17  C   -0.004709   0.013506  -0.057181   0.443158   0.007794   0.008882
    18  H   -0.006296  -0.000038   0.000011   0.000040   0.003794  -0.002713
    19  H    0.508238  -0.006938  -0.000048   0.000033  -0.000019   0.000018
    20  H   -0.006938   0.508353  -0.006746  -0.000099   0.000002   0.000004
    21  H   -0.000048  -0.006746   0.507064  -0.006355   0.000002  -0.000007
    22  H    0.000033  -0.000099  -0.006355   0.508723  -0.000766   0.000241
    23  Cl  -0.000019   0.000002   0.000002  -0.000766  17.104856   0.002843
    24  C    0.000018   0.000004  -0.000007   0.000241   0.002843   5.049657
    25  H    0.000063   0.000001  -0.000001   0.000014   0.000808   0.424286
    26  H   -0.000004  -0.000000   0.000000  -0.000007  -0.000425   0.418670
    27  H   -0.000046   0.000002  -0.000008  -0.000028  -0.000297   0.437275
    28  N    0.000000   0.000000   0.000000   0.000004  -0.001185  -0.022829
    29  C    0.000001  -0.000000  -0.000000   0.000001   0.000732  -0.005599
    30  C   -0.000000  -0.000000  -0.000000  -0.000000  -0.000353  -0.001202
    31  H   -0.000004  -0.000000   0.000000  -0.000001  -0.000077  -0.015649
    32  H   -0.000000   0.000000   0.000000  -0.000000  -0.000080  -0.000008
    33  H    0.000000   0.000000  -0.000000   0.000000   0.000026   0.009634
    34  H   -0.000000   0.000000  -0.000000  -0.000000   0.000035   0.000605
    35  H    0.000000  -0.000000  -0.000000   0.000000   0.000005   0.000367
    36  H   -0.000000  -0.000000   0.000000  -0.000000  -0.000007  -0.000243
              25         26         27         28         29         30
     1  C   -0.061299  -0.064636  -0.050472  -0.126969  -0.008102   0.007745
     2  C   -0.002304   0.002448  -0.002160   0.472558  -0.059485  -0.064553
     3  O   -0.000542   0.000476  -0.000083  -0.100508   0.002957  -0.002642
     4  C   -0.000636   0.005416  -0.006476   0.007655  -0.000724   0.000937
     5  C   -0.000233   0.000393   0.001451  -0.000012  -0.000014  -0.000146
     6  H   -0.000006  -0.000001   0.000116  -0.000004  -0.000000   0.000005
     7  H    0.000005  -0.000078  -0.000452  -0.000028   0.000002  -0.000002
     8  H    0.000838  -0.000491  -0.003074   0.000413   0.000073   0.000047
     9  N   -0.001342   0.000962   0.002369  -0.000923  -0.000193   0.000064
    10  H    0.000042  -0.000012  -0.000134   0.000038   0.000006  -0.000003
    11  H    0.000006   0.000030  -0.000162   0.001299  -0.000102  -0.000182
    12  C    0.003189  -0.001825  -0.011585   0.000065   0.001161  -0.000057
    13  C    0.002968   0.001727  -0.007133   0.000234  -0.000650  -0.000006
    14  C   -0.000130  -0.000084  -0.000997  -0.000007   0.000008  -0.000000
    15  C    0.000314   0.000005   0.000468   0.000001   0.000001   0.000000
    16  C   -0.000229  -0.000015  -0.000171  -0.000002  -0.000003  -0.000000
    17  C   -0.001374   0.000290   0.006602   0.000045  -0.000013   0.000000
    18  H   -0.003143   0.000373   0.000619   0.000024   0.000160   0.000005
    19  H    0.000063  -0.000004  -0.000046   0.000000   0.000001  -0.000000
    20  H    0.000001  -0.000000   0.000002   0.000000  -0.000000  -0.000000
    21  H   -0.000001   0.000000  -0.000008   0.000000  -0.000000  -0.000000
    22  H    0.000014  -0.000007  -0.000028   0.000004   0.000001  -0.000000
    23  Cl   0.000808  -0.000425  -0.000297  -0.001185   0.000732  -0.000353
    24  C    0.424286   0.418670   0.437275  -0.022829  -0.005599  -0.001202
    25  H    0.582956  -0.034316  -0.030571  -0.001489   0.002697  -0.000141
    26  H   -0.034316   0.537575  -0.013120   0.017541  -0.008774   0.000830
    27  H   -0.030571  -0.013120   0.527857   0.000840   0.000358   0.000038
    28  N   -0.001489   0.017541   0.000840   6.575974   0.264309   0.276064
    29  C    0.002697  -0.008774   0.000358   0.264309   4.912664  -0.043649
    30  C   -0.000141   0.000830   0.000038   0.276064  -0.043649   4.884389
    31  H   -0.003317   0.000897   0.000623  -0.036346   0.420818   0.006438
    32  H   -0.000223   0.000978   0.000018  -0.036531   0.397673   0.000664
    33  H   -0.000806  -0.006179  -0.000094  -0.053047   0.424556  -0.006532
    34  H    0.000004  -0.000346  -0.000005  -0.033637   0.007801   0.404122
    35  H    0.000053  -0.000477  -0.000010  -0.043796  -0.003865   0.403119
    36  H   -0.000021   0.000169   0.000007  -0.044516  -0.007806   0.431321
              31         32         33         34         35         36
     1  C    0.011883  -0.003570  -0.002854   0.003323   0.002803  -0.003124
     2  C   -0.015820   0.002431   0.005675  -0.013381   0.006658  -0.004068
     3  O    0.000488   0.000209  -0.000235   0.011809   0.001701   0.001707
     4  C    0.004857   0.000933  -0.001443  -0.001000  -0.000122   0.000366
     5  C   -0.000007  -0.000002   0.000014   0.000126  -0.000002  -0.000008
     6  H    0.000000   0.000000  -0.000000  -0.000001  -0.000000   0.000000
     7  H   -0.000001  -0.000000   0.000001   0.000003   0.000000  -0.000000
     8  H   -0.000005  -0.000002  -0.000005  -0.000025   0.000003  -0.000002
     9  N    0.000062   0.000007  -0.000006  -0.000012  -0.000003   0.000016
    10  H   -0.000002  -0.000000   0.000000  -0.000001   0.000000  -0.000000
    11  H   -0.000037   0.000001   0.000011   0.000033  -0.000000  -0.000020
    12  C   -0.000496  -0.000062   0.000103  -0.000001   0.000001  -0.000014
    13  C   -0.000343  -0.000002   0.000041  -0.000001   0.000000  -0.000001
    14  C    0.000004  -0.000000   0.000000  -0.000000   0.000000   0.000000
    15  C   -0.000001   0.000000   0.000000   0.000000  -0.000000  -0.000000
    16  C    0.000001   0.000000  -0.000000  -0.000000  -0.000000   0.000000
    17  C    0.000027   0.000000  -0.000001   0.000000  -0.000000   0.000000
    18  H    0.001197   0.000008  -0.000024  -0.000001  -0.000001   0.000001
    19  H   -0.000004  -0.000000   0.000000  -0.000000   0.000000  -0.000000
    20  H   -0.000000   0.000000   0.000000   0.000000  -0.000000  -0.000000
    21  H    0.000000   0.000000  -0.000000  -0.000000  -0.000000   0.000000
    22  H   -0.000001  -0.000000   0.000000  -0.000000   0.000000  -0.000000
    23  Cl  -0.000077  -0.000080   0.000026   0.000035   0.000005  -0.000007
    24  C   -0.015649  -0.000008   0.009634   0.000605   0.000367  -0.000243
    25  H   -0.003317  -0.000223  -0.000806   0.000004   0.000053  -0.000021
    26  H    0.000897   0.000978  -0.006179  -0.000346  -0.000477   0.000169
    27  H    0.000623   0.000018  -0.000094  -0.000005  -0.000010   0.000007
    28  N   -0.036346  -0.036531  -0.053047  -0.033637  -0.043796  -0.044516
    29  C    0.420818   0.397673   0.424556   0.007801  -0.003865  -0.007806
    30  C    0.006438   0.000664  -0.006532   0.404122   0.403119   0.431321
    31  H    0.511782  -0.011591  -0.029998  -0.000493   0.000169   0.000634
    32  H   -0.011591   0.543928  -0.035597  -0.000472  -0.007230   0.006584
    33  H   -0.029998  -0.035597   0.557226   0.000728   0.004546  -0.001542
    34  H   -0.000493  -0.000472   0.000728   0.530023  -0.014370  -0.031996
    35  H    0.000169  -0.007230   0.004546  -0.014370   0.550222  -0.037404
    36  H    0.000634   0.006584  -0.001542  -0.031996  -0.037404   0.559530
 Mulliken charges:
               1
     1  C   -0.419745
     2  C    0.346290
     3  O   -0.587264
     4  C    0.325821
     5  C   -0.299998
     6  H    0.156375
     7  H    0.146656
     8  H    0.157983
     9  N   -0.302694
    10  H    0.277305
    11  H    0.276945
    12  C    0.138201
    13  C   -0.297001
    14  C   -0.131556
    15  C   -0.145661
    16  C   -0.161548
    17  C   -0.198079
    18  H    0.173659
    19  H    0.143998
    20  H    0.145771
    21  H    0.144332
    22  H    0.146408
    23  Cl  -0.194987
    24  C   -0.384228
    25  H    0.123880
    26  H    0.142010
    27  H    0.148434
    28  N   -0.115235
    29  C   -0.296999
    30  C   -0.296321
    31  H    0.154308
    32  H    0.141934
    33  H    0.135803
    34  H    0.137130
    35  H    0.137634
    36  H    0.130437
 Sum of Mulliken charges =  -0.00000
 Mulliken charges with hydrogens summed into heavy atoms:
               1
     1  C   -0.419745
     2  C    0.346290
     3  O   -0.587264
     4  C    0.325821
     5  C    0.161017
     9  N    0.251556
    12  C    0.138201
    13  C   -0.123342
    14  C    0.012442
    15  C    0.000110
    16  C   -0.017217
    17  C   -0.051671
    23  Cl  -0.194987
    24  C    0.030097
    28  N   -0.115235
    29  C    0.135046
    30  C    0.108880
 APT charges:
               1
     1  C   -0.106068
     2  C   -0.131955
     3  O   -0.300415
     4  C    0.010568
     5  C   -1.117167
     6  H    0.680143
     7  H    0.406450
     8  H    0.133657
     9  N   -0.718117
    10  H    0.674460
    11  H    0.413187
    12  C   -0.319318
    13  C   -0.578290
    14  C   -0.554098
    15  C   -0.650120
    16  C   -0.652063
    17  C   -0.616811
    18  H    0.230383
    19  H    0.730523
    20  H    1.052158
    21  H    0.859434
    22  H    0.370151
    23  Cl   0.052334
    24  C   -1.321738
    25  H    0.368685
    26  H    0.480287
    27  H    0.288332
    28  N    0.205013
    29  C   -1.021722
    30  C   -1.499425
    31  H   -0.053459
    32  H    0.692536
    33  H    0.476716
    34  H    0.302671
    35  H    0.710957
    36  H    0.502122
 Sum of APT charges =  -0.00000
 APT charges with hydrogens summed into heavy atoms:
               1
     1  C   -0.106068
     2  C   -0.131955
     3  O   -0.300415
     4  C    0.010568
     5  C    0.103083
     9  N    0.369530
    12  C   -0.319318
    13  C   -0.347907
    14  C    0.176425
    15  C    0.402039
    16  C    0.207371
    17  C   -0.246660
    23  Cl   0.052334
    24  C   -0.184435
    28  N    0.205013
    29  C    0.094071
    30  C    0.016325
 Electronic spatial extent (au):  <R**2>=           4709.9597
 Charge=             -0.0000 electrons
 Dipole moment (field-independent basis, Debye):
    X=              2.7475    Y=             -0.1406    Z=             -4.1897  Tot=              5.0122
 Quadrupole moment (field-independent basis, Debye-Ang):
   XX=            -98.8674   YY=            -94.3645   ZZ=           -115.1294
   XY=             11.2712   XZ=              0.2223   YZ=             -7.3480
 Traceless Quadrupole moment (field-independent basis, Debye-Ang):
   XX=              3.9197   YY=              8.4226   ZZ=            -12.3423
   XY=             11.2712   XZ=              0.2223   YZ=             -7.3480
[...]
 0.00000736,-0.00000686,-0.00000070,-0.00000779,-0.00006529,-0.00010474
 ,0.00063346,0.00117080,-0.00078314,0.00142724,-0.00041884,-0.00085972,
 -0.00007691,-0.00004171,-0.00009737,-0.00005479,-0.00050726,0.00006115
 ,-0.00168164,0.00186097,-0.00089480,-0.08975687,0.02024267,-0.08299924
 ,0.00073977,-0.00026400,-0.00007905,0.09570575,-0.02195124,0.08400064,
 -0.00176701,-0.00104548,0.00042185,0.00044163,0.00072335,-0.00032627,0
 .00006661,0.00028269,0.00052597,0.00103460,0.00166094,0.00081084,0.000
 01142,-0.00007474,-0.00018567,0.00000503,-0.00000955,0.00006198,-0.000
 02144,-0.00000421,0.00001377,-0.00000501,0.00007014,-0.00003042,-0.000
 20888,-0.00100600,0.00006844,0.00005632,-0.00013482,0.00008372,-0.0000
 9281,0.00004286,0.00003601,0.00009843,-0.00006150,-0.00004290,-0.00004
 636,-0.00001598,-0.00002207,0.00000012,0.00000784,0.00001136,-0.000030
 45,0.00000737,0.00000654,-0.00001557,0.00000059,0.00000665,-0.00002260
 ,0.00002629,-0.00000639,0.00002773,-0.00002374,0.00002477,-0.00001140,
 0.00001183,0.00000005,-0.00000933,0.00000180,-0.00000055,-0.00001472,-
 0.00000015,0.00000378,0.00001659,-0.00001071,-0.00000392,-0.00001256,-
 0.00019877,-0.00028262,-0.00045657,-0.00013170,-0.00015113,0.00027758,
 -0.00028096,-0.00011784,0.00003664,0.00010148,-0.00013657,-0.00004109,
 -0.00027475,0.00003111,0.00370550,0.00178236,-0.00351271,-0.17188586,-
 0.05640015,0.11793234,0.00071681,0.00103368,-0.00284536,-0.01609495,-0
 .00876623,0.01992315,0.17988716,-0.00220966,-0.00013726,-0.00078061,0.
 00751850,0.00195667,0.00537948,-0.00076079,-0.00313469,-0.00180273,0.0
 0076633,0.00166441,0.00054866,-0.00000526,-0.00003280,-0.00020155,0.00
 001108,-0.00000676,0.00006339,-0.00002534,-0.00000677,0.00002860,0.000
 00909,0.00004288,-0.00002774,-0.00027008,-0.00076881,0.00011240,0.0000
 4114,-0.00007083,0.00007943,0.00027455,0.00021123,-0.00007345,0.000087
 88,-0.00012638,-0.00003783,-0.00008244,-0.00000105,0.00001317,-0.00000
 839,0.00001234,0.00001143,-0.00002836,0.00000854,0.00000249,-0.0000138
 5,-0.00000178,0.00000792,-0.00004857,0.00003322,0.00000501,0.00000312,
 -0.00002767,-0.00000296,-0.00001025,0.00001006,0.00000039,-0.00000781,
 0.00000217,-0.00000123,-0.00001479,0.00000095,0.00000365,0.00002176,-0
 .00000539,-0.00000523,-0.00007789,-0.00015421,-0.00021635,0.00039127,-
 0.00029862,-0.00035641,-0.00009156,0.00029008,-0.00006136,0.00011242,-
 0.00012060,0.00019189,0.00005825,0.00024671,0.00006662,-0.02800332,-0.
 02872030,0.02196759,-0.05062471,-0.07062106,0.04996588,-0.00248842,0.0
 0133724,0.00031444,0.00350080,0.00241473,-0.00535877,0.06124709,0.0904
 0278,0.00041634,-0.00022057,0.00036194,-0.00245966,-0.00241493,-0.0016
 3150,-0.00007630,0.00133582,0.00010112,-0.00013619,-0.00039448,-0.0000
 4482,-0.00000586,-0.00000073,0.00003002,-0.00000054,0.00000559,-0.0000
 1199,0.00000654,0.00000261,-0.00000644,0.00000016,-0.00000904,0.000013
 61,0.00006337,0.00008286,-0.00001680,0.00000362,0.00000764,-0.00001697
 ,-0.00012180,-0.00007983,0.00001255,-0.00001435,0.00004393,0.00002216,
 0.00002963,-0.00000271,0.00000485,-0.00000438,0.00000234,-0.00000185,0
 .00001252,0.00000159,-0.00000499,0.00000963,-0.00000351,-0.00000212,0.
 00000556,-0.00002074,0.00000082,0.00000235,0.00001290,-0.00000503,0.00
 000310,-0.00000349,0.00000051,0.00000311,-0.00000043,0.00000018,0.0000
 0524,0.00000007,-0.00000056,-0.00000641,0.00000190,0.00000099,0.000030
 32,0.00005761,0.00009347,-0.00017881,0.00024044,-0.00043547,-0.0000970
 1,-0.00009555,-0.00003435,0.00015183,-0.00007194,0.00020507,0.00008382
 ,-0.00000732,0.00009463,0.00182806,0.00632876,0.00243355,0.11757741,0.
 05243496,-0.16380041,-0.00005207,-0.00015739,0.00186754,-0.00778799,-0
 .00490677,0.00916922,-0.12909922,-0.06054738,0.17105733,0.00077761,-0.
 00005754,-0.00003783,-0.00059458,-0.00065689,0.00000202,0.00013928,-0.
 00017807,-0.00003702,-0.00024703,-0.00038464,-0.00008667,-0.00000569,0
 .00001308,0.00001209,0.00000441,0.00000257,-0.00001178,0.00000269,-0.0
 0000076,-0.00000102,0.00000613,-0.00001292,0.00000600,0.00002091,0.000
 17540,0.00001914,-0.00000122,0.00004343,-0.00002051,0.00004170,-0.0000
 0100,-0.00001433,-0.00001170,0.00002516,-0.00001248,0.00001520,0.00001
 082,0.00000947,-0.00000669,-0.00000152,0.00000487,0.00000630,0.0000027
 7,-0.00000418,0.00000681,-0.00000122,-0.00000008,-0.00000080,-0.000011
 81,0.00000807,0.00001435,0.00000492,-0.00000643,0.00000192,-0.00000219
 ,-0.00000031,0.00000159,-0.00000068,-0.00000033,0.00000318,-0.00000003
 ,-0.00000062,-0.00000448,0.00000282,-0.00000040,-0.00000182,0.00005365
 ,0.00007050,0.00005437,-0.00021751,-0.00042436,-0.00016462,0.00019872,
 -0.00012747,-0.00009192,-0.00033605,0.00036339,0.00015657,0.00016250,0
 .00007464,0.00139759,0.00244022,0.00343067,-0.05557322,-0.01534903,-0.
 03167110,0.00112967,0.00027885,0.00055969,-0.00200900,-0.01328355,-0.0
 2601136,0.00358204,0.01005344,0.02058135,0.05124373,-0.00174122,-0.000
 16640,-0.00047126,0.00826561,0.00187531,-0.00331333,-0.00172975,-0.004
 37321,0.00098889,0.00056030,0.00134777,0.00062231,-0.00000762,-0.00003
 109,-0.00017793,0.00000747,-0.00000733,0.00005100,-0.00002053,-0.00000
 803,0.00002685,0.00001052,0.00003594,-0.00002995,-0.00035619,-0.000632
 39,0.00005484,-0.00001530,-0.00008073,0.00008507,0.00040144,0.00024428
 ,-0.00001142,0.00009066,-0.00010017,-0.00005138,-0.00006931,-0.0000013
 8,0.00001349,-0.00000969,0.00001417,0.00001323,-0.00002512,0.00001010,
 0.00000038,-0.00001013,-0.00000238,0.00000789,-0.00005201,0.00003133,0
 .00000350,0.00000407,-0.00002190,-0.00000214,-0.00000982,0.00000921,0.
 00000017,-0.00000691,0.00000208,-0.00000113,-0.00001348,0.00000073,0.0
 0000335,0.00002095,-0.00000556,-0.00000596,-0.00003882,-0.00015235,-0.
 00021688,-0.00021073,-0.00017458,-0.00025583,-0.00005267,0.00003249,0.
 00001986,-0.00004510,-0.00029041,0.00030069,0.00009094,0.00012629,0.00
 015257,-0.00810857,-0.03210576,-0.02442778,-0.01485933,-0.09583746,-0.
 09923146,-0.00291052,0.00010037,-0.00096004,-0.00009164,0.00369645,0.0
 0558434,0.00172937,0.00563133,0.00786718,0.01793012,0.12034416,-0.0003
 5102,-0.00008807,-0.00009682,0.00224119,0.00242334,0.00039264,0.000055
 24,-0.00064092,-0.00040124,0.00024965,0.00049764,0.00023879,0.00000038
 ,-0.00001750,-0.00006903,0.00000254,-0.00000148,0.00002327,-0.00000866
 ,-0.00000258,0.00000777,0.00000640,0.00001776,-0.00001095,-0.00008865,
 -0.00031150,0.00002569,0.00001375,-0.00003378,0.00003068,0.00005408,0.
 00006202,-0.00000647,0.00003385,-0.00003543,-0.00002601,-0.00002764,0.
 00000842,0.00000218,-0.00000309,0.00000106,0.00000108,-0.00001025,0.00
 000249,0.00000183,-0.00000516,0.00000059,0.00000504,-0.00001476,0.0000
 0679,0.00000035,0.00000662,-0.00001274,0.00000408,-0.00000375,0.000003
 72,-0.00000024,-0.00000317,0.00000052,-0.00000008,-0.00000486,0.000000
 10,0.00000139,0.00000643,-0.00000291,-0.00000294,-0.00001720,-0.000039
 34,-0.00003990,0.00010048,0.00032177,-0.00017913,-0.00011554,0.0000092
 7,-0.00010715,0.00024989,0.00002427,-0.00004015,-0.00004722,0.00014969
 ,0.00010979,0.00026118,-0.00100586,0.01297084,-0.03321222,-0.10186438,
 -0.25154584,0.00003422,0.00015641,0.00038879,0.00014120,-0.00370258,-0
 .00873547,-0.00381290,-0.00851474,-0.01847640,0.03382660,0.11311024,0.
 26628624,-0.00012374,-0.00002903,0.00041811,0.00127895,0.00444744,0.00
 006363,0.00006680,-0.00260079,0.00006344,0.00018352,0.00030495,0.00004
 153,0.00001313,-0.00002026,0.00000480,-0.00000318,0.00000400,0.0000050
 0,0.00000206,0.00000122,-0.00000824,0.00000360,0.00001020,0.00000015,0
 .00005231,-0.00011578,-0.00003898,0.00001272,-0.00004528,0.00000463,-0
 .00018672,-0.00012327,0.00006925,0.00002205,0.00001122,0.00001213,-0.0
 0000193,0.00000700,-0.00000615,-0.00000107,-0.00000265,0.00000257,-0.0
 0000028,-0.00000035,0.00000024,-0.00000151,-0.00000135,-0.00000091,0.0
 0000452,-0.00000046,-0.00000009,0.00000222,-0.00000516,0.00000299,0.00
 000020,0.00000013,0.00000007,-0.00000037,-0.00000042,0.,0.00000018,-0.
 00000013,-0.00000009,-0.00000127,-0.00000227,0.00000095,0.00005474,-0.
 00006965,-0.00005210,-0.00005222,-0.00002337,0.00007161,0.00004289,-0.
 00005920,-0.00002671,0.00001320,0.00000151,-0.00003936,-0.00002784,-0.
 00001411,0.00002947,-0.00424063,0.03448460,-0.01203704,-0.00549678,-0.
 00033130,-0.00113184,-0.04872461,-0.00020218,0.00199502,-0.00035206,0.
 00173847,-0.00004511,0.00004367,-0.00013495,-0.00007562,0.00004929,0.0
 0003650,0.00018096,0.05532950,0.00055594,0.00017039,0.00027337,-0.0019
 2828,-0.00273120,-0.00130588,-0.00317813,0.00080213,-0.00043497,-0.000
 12987,-0.00033957,-0.00015619,-0.00000331,0.00000996,0.00003140,-0.000
 00071,0.00000298,-0.00001176,0.00000385,-0.00000005,-0.00000316,0.0000
 0380,-0.00001309,0.00000436,-0.00001410,0.00017832,-0.00001820,-0.0000
 1956,0.00001610,-0.00000938,0.00001096,0.00001602,0.00000334,-0.000013
 20,0.00001935,0.00002542,0.00001528,-0.00000180,0.00000287,0.00000027,
 -0.00000066,-0.00000320,0.00000658,-0.00000086,-0.00000123,0.00000355,
 -0.00000090,-0.00000286,0.00000244,-0.00000513,0.00000113,-0.00000285,
 0.00000643,-0.00000358,0.00000196,-0.00000218,0.00000017,0.00000193,-0
 .00000019,0.00000019,0.00000294,0.00000010,-0.00000075,-0.00000267,0.0
 0000283,0.00000083,0.00000866,0.00003098,0.00005283,-0.00002736,0.0000
 0699,0.00003277,-0.00003078,0.00002101,-0.00000687,-0.00002584,-0.0000
 0283,0.00003470,0.00001876,0.00002381,0.00001900,0.00444499,-0.0112357
 1,0.00189876,0.00264498,0.00103962,0.00122580,0.01018952,-0.28949034,0
 .09442726,0.00009911,-0.00076999,-0.00003555,-0.00017590,0.00026856,-0
 .00014176,-0.00010917,0.00005070,-0.00003410,-0.01223068,0.31413241,0.
 00009408,-0.00015284,-0.00006890,-0.00018253,0.00191668,0.00119972,0.0
 0126068,-0.00102455,-0.00054368,-0.00007952,-0.00002765,-0.00005137,0.
 00000702,-0.00000240,0.00003163,-0.00000265,0.00000407,-0.00000417,0.0
 0000237,0.00000075,-0.00000820,-0.00000173,-0.00000438,0.00000235,0.00
 007908,0.00005032,-0.00003537,0.00000790,-0.00000779,-0.00001065,-0.00
 012145,-0.00009667,0.00003314,-0.00001152,-0.00000071,0.00001124,0.000
 00843,0.00000179,-0.00000044,-0.00000010,-0.00000204,-0.00000137,0.000
 00331,-0.00000091,-0.00000045,0.00000067,-0.00000157,-0.00000045,0.000
 00209,-0.00000144,-0.00000184,-0.00000257,0.00000158,-0.00000150,0.000
 00131,-0.00000112,0.00000028,0.00000091,-0.00000029,0.00000012,0.00000
 146,0.00000013,-0.00000013,-0.00000306,-0.00000004,0.00000098,0.000018
 37,0.00000149,0.00001611,0.00000637,0.00000955,0.00001679,0.00000056,-
 0.00001506,-0.00000047,-0.00000425,-0.00000777,-0.00002013,-0.00001093
 ,-0.00000586,-0.00001054,-0.00074706,-0.00264773,0.00032627,0.00044390
 ,-0.00041498,0.00025097,-0.00220450,0.09452608,-0.08449979,0.00005446,
 -0.00013929,0.00025892,-0.00001368,-0.00023628,0.00007550,-0.00008468,
 0.00013465,0.00005478,0.00007569,-0.10173524,0.08448547,-0.00245549,-0
 .00127184,-0.00000828,0.00025560,0.00678835,-0.00231473,0.00046422,-0.
 00105794,-0.00002153,0.00059770,0.00162614,0.00110174,0.00000765,-0.00
 004962,-0.00017679,0.00000460,-0.00001130,0.00006178,-0.00002152,-0.00
 000597,0.00001993,0.00000078,0.00005371,-0.00003344,-0.00021735,-0.000
 81702,0.00005217,0.00003658,-0.00010577,0.00007665,0.00011181,0.000131
 37,0.00000019,0.00012510,-0.00005864,-0.00017171,-0.00010264,0.0000061
 1,0.00000429,-0.00000450,0.00001376,0.00002429,-0.00003784,0.00001039,
 0.00000469,-0.00001384,0.00000648,0.00001468,-0.00003823,0.00003793,0.
 00000132,0.00000455,-0.00003097,0.00000135,-0.00001300,0.00001285,0.00
 000019,-0.00001029,0.00000141,-0.00000321,-0.00001654,-0.00000046,0.00
 000366,0.00001790,-0.00001144,-0.00000913,-0.00005065,-0.00026673,-0.0
 0037656,-0.00014121,-0.00018050,-0.00004893,0.00001647,0.00009413,0.00
 004396,0.00004616,0.00000886,-0.00000359,-0.00006459,0.00008645,0.0000
 8178,-0.03205777,-0.02150502,-0.01776069,0.00083893,-0.00186799,0.0005
 2289,-0.12155491,-0.08223266,-0.08021954,0.00021682,-0.00003941,0.0001
 5036,0.00005062,0.00033633,-0.00020007,-0.00010139,0.00060635,0.000292
 18,0.00122052,0.00071428,0.00198179,0.14569678,0.00049695,0.00070315,-
 0.00046353,0.00161051,-0.00370998,-0.00047222,-0.00318864,0.00064725,-
 0.00001423,-0.00005803,-0.00024309,-0.00023466,-0.00000402,0.00002359,
 -0.00001708,0.00000446,-0.00000582,-0.00000357,-0.00000147,-0.00000066
 ,0.00001036,0.00000004,-0.00000456,-0.00000251,-0.00008333,0.00009411,
 0.00003856,-0.00001618,0.00004036,0.00000366,0.00021041,0.00014426,-0.
 00005748,-0.00002586,-0.00003203,0.00003652,0.00000542,0.00000097,-0.0
 0000316,0.00000237,-0.00000375,-0.00000577,-0.00000072,-0.00000213,0.0
 0000138,-0.00000246,0.00000022,-0.00000055,-0.00000438,0.00000272,-0.0
 0000072,0.00000276,-0.00000122,0.00000524,0.00000031,-0.00000016,-0.00
 000062,-0.00000023,0.00000045,0.00000094,-0.00000077,0.00000017,0.0000
 0007,0.00000314,0.00000318,0.00000086,-0.00005231,0.00007491,0.0000913
 1,-0.00001418,0.00000536,0.00002408,0.00000980,-0.00001480,0.00001746,
 0.00002085,-0.00000264,-0.00002878,-0.00001267,-0.00002956,-0.00000581
 ,0.01144585,0.00813572,0.00856166,0.00059316,0.00080519,0.00197497,-0.
 08919772,-0.14892162,-0.09504992,-0.00020027,0.00015524,-0.00008749,0.
 00060193,-0.00016445,0.00003990,-0.00043552,0.00045162,-0.00061963,-0.
 01461459,-0.01326452,-0.01839299,0.09210517,0.15438437,-0.00034846,0.0
 0013863,0.00000115,0.00188498,0.00154621,-0.00022580,0.00081802,-0.000
 36673,0.00033092,0.00015593,0.00031578,0.00010801,0.00000466,-0.000007
 57,-0.00002282,-0.00000001,-0.00000114,0.00001004,-0.00000274,-0.00000
 026,0.00000200,-0.00000102,0.00000863,-0.00000323,-0.00001777,-0.00014
 630,0.00000639,0.00000847,-0.00001816,0.00000990,-0.00000584,-0.000002
 21,0.00001142,0.00002846,-0.00001420,0.00000130,-0.00001565,0.00000260
 ,-0.00000217,-0.00000177,0.00000076,0.00000259,-0.00000462,0.00000113,
 0.00000057,-0.00000290,-0.00000057,0.00000090,-0.00000591,0.00000527,-
 0.00000086,-0.00000061,-0.00000680,0.00000161,-0.00000172,0.00000173,-
 0.00000006,-0.00000154,0.00000022,-0.00000014,-0.00000238,0.00000007,0
 .00000058,0.00000285,-0.00000124,-0.00000034,0.00000365,-0.00004442,-0
 .00004925,-0.00006938,-0.00006408,0.00002925,0.00000965,0.00001112,0.0
 0000959,0.00002085,-0.00001157,-0.00002466,-0.00003389,0.00002892,0.00
 000666,-0.00077168,0.00184216,0.00383761,-0.00011925,0.00024665,0.0010
 9381,-0.08448638,-0.09448732,-0.14056542,0.00016595,0.00008980,-0.0000
 2195,-0.00000506,0.00013004,-0.00055729,-0.00030948,0.00026759,-0.0003
 7282,0.00776879,0.00648155,0.00821890,0.09099598,0.10321415,0.14548226
 ,-0.00232385,-0.00035573,-0.00146142,0.00392287,0.00788725,0.00300533,
 0.00089289,-0.00330279,0.00016355,0.00051832,0.00199711,0.00053114,0.0
 0000860,-0.00005339,-0.00018278,0.00000457,-0.00001347,0.00006528,-0.0
 0002652,-0.00000824,0.00002136,0.00000780,0.00006492,-0.00004323,-0.00
 020554,-0.00081625,0.00009853,0.00002967,-0.00009283,0.00008343,0.0001
 7703,0.00017375,-0.00001550,0.00003340,-0.00026365,-0.00005713,-0.0000
 7791,-0.00000916,-0.00000226,0.00000267,0.00000623,0.00000350,-0.00003
 989,0.00000256,0.00000916,-0.00002945,-0.00000367,0.00001691,-0.000066
 11,0.00006684,-0.00000792,0.00001600,-0.00003260,0.00001634,-0.0000127
 0,0.00001347,-0.00000027,-0.00001065,0.00000275,0.00000019,-0.00002134
 ,0.00000169,0.00000537,0.00002365,-0.00001011,-0.00000445,-0.00004513,
 -0.00016393,-0.00023601,-0.00013304,-0.00051901,-0.00001793,0.00003387
 ,0.00010014,-0.00001270,0.00011148,-0.00003605,-0.00015858,-0.00014256
 ,0.00009502,0.00003067,-0.03103245,0.00189147,0.02905636,-0.00026004,-
 0.00323292,0.00125014,-0.07529114,-0.00186438,0.07931693,0.00005720,-0
 .00003001,-0.00011126,0.00067810,0.00047340,-0.00049768,0.00015884,0.0
 0063016,-0.00003074,0.00081816,-0.00083740,-0.00058019,0.00718893,0.00
 080021,-0.01566015,0.09503427,0.00028517,-0.00002823,0.00023535,-0.001
 34957,-0.00118353,-0.00016095,0.00092008,0.00146222,-0.00016233,-0.000
 05184,-0.00019775,-0.00005587,0.00000002,-0.00000176,0.00003977,-0.000
 00227,0.00000514,-0.00000912,0.00000502,0.00000179,-0.00000769,-0.0000
 0022,-0.00000983,0.00000852,0.00006979,0.00010250,-0.00002145,0.000004
 83,0.00000354,-0.00001544,-0.00012866,-0.00008361,0.00001286,-0.000006
 03,0.00003400,0.00001476,0.00001310,0.00000275,-0.00000162,-0.00000145
 ,-0.00000190,0.00000084,0.00000681,-0.00000001,-0.00000176,0.00000414,
 -0.00000124,-0.00000257,0.00000877,-0.00000805,0.00000148,-0.00000183,
 0.00000366,-0.00000237,0.00000220,-0.00000221,0.00000010,0.00000171,-0
 .00000058,-0.00000006,0.00000334,-0.00000016,-0.00000083,-0.00000470,0
 .00000095,0.00000084,0.00002700,0.00000353,0.00002436,0.00005114,0.000
 08984,-0.00000167,-0.00000019,-0.00002743,-0.00000651,-0.00001170,0.00
 000661,0.00004753,0.00004129,-0.00001927,0.00000959,0.00938207,-0.0002
 6214,-0.01001048,0.00067520,0.00221430,-0.00161089,-0.00265190,-0.0504
 2148,0.00477384,-0.00010849,0.00009286,0.00009967,-0.00071626,-0.00013
 446,0.00061248,-0.00035839,-0.00001319,0.00013144,-0.01042001,0.001060
 32,0.02827251,0.00687320,0.00072813,-0.01916045,-0.00256138,0.04658473
 ,0.00099952,0.00032550,-0.00026122,-0.00301074,-0.00303585,-0.00028715
 ,0.00028499,0.00150190,0.00009770,-0.00046345,-0.00083169,-0.00037800,
 0.00000221,0.00002434,0.00009392,-0.00000331,0.00000420,-0.00003110,0.
 00001427,0.00000601,-0.00001063,-0.00000562,-0.00002525,0.00002353,0.0
 0018073,0.00039096,-0.00002258,-0.00000003,0.00006024,-0.00004908,-0.0
 0014503,-0.00011794,-0.00000670,-0.00006162,0.00003443,0.00004500,0.00
 004228,0.00000003,-0.00000050,0.00000110,-0.00000503,-0.00000690,0.000
 01776,-0.00000374,-0.00000293,0.00000833,-0.00000228,-0.00000428,0.000
 01784,-0.00001874,0.00000206,-0.00000539,0.00001514,-0.00000479,0.0000
 0605,-0.00000620,-0.00000010,0.00000490,-0.00000105,0.00000060,0.00000
 809,0.00000005,-0.00000189,-0.00001174,0.00000463,0.00000274,0.0000281
 0,0.00012019,0.00018389,0.00005950,0.00017620,-0.00001983,-0.00001738,
 -0.00004478,0.00001167,-0.00002876,0.00000102,0.00002733,0.00003055,-0
 .00004768,-0.00004836,0.00725994,-0.00038830,0.00970949,-0.00038085,0.
 00003183,0.00066317,0.08069801,0.00509037,-0.27100660,-0.00002673,-0.0
 0021366,0.00009921,0.00063295,-0.00066787,-0.00049809,-0.00010606,-0.0
 0015163,-0.00043460,0.00265120,-0.00061107,-0.00972371,0.00591235,0.00
 143961,-0.01731867,-0.09459396,-0.00305388,0.28915741\\-0.00000310,-0.
 00000659,-0.00000260,-0.00000020,0.00000221,-0.00000087,-0.00000446,0.
 00000142,-0.00000212,0.00000084,0.00000243,0.00000173,-0.00000066,0.00
 000233,0.00000018,0.00000240,-0.00000277,-0.00000037,0.00000359,-0.000
 00327,-0.00000125,0.00000051,-0.00000298,-0.00000081,0.00000169,-0.000
 00036,-0.00000509,0.00000104,0.00000092,0.00000076,-0.00000135,0.00000
 058,-0.00000339,0.00000487,0.00000390,-0.00000326,-0.00000555,-0.00000
 420,0.00000522,-0.00000367,0.00000350,0.00000161,0.00000870,-0.0000037
 2,0.00000292,-0.00000235,-0.00000099,0.00000310,-0.00000121,0.00000187
 ,0.00000018,-0.00000246,0.00000154,0.00000049,-0.00000007,-0.00000264,
 0.00000510,-0.00000415,0.00000107,0.00000436,0.00000089,-0.00000061,0.
 00000209,-0.00000182,0.00000059,-0.00000105,-0.00000059,0.00000026,-0.
 00000003,0.00000517,0.00000564,-0.00000172,0.00000133,-0.00000574,0.00
 000384,0.00000130,-0.00000102,0.00000088,-0.00000240,-0.00000233,0.000
 00299,0.00000101,0.00000398,0.00000091,-0.00000415,0.00000302,-0.00000
 006,0.00000797,0.00000225,0.00000319,0.00000242,0.00000249,0.00000112,
 -0.00000058,0.00000147,-0.00000092,-0.00000095,-0.00000347,-0.00000252
 ,-0.00000127,0.00000111,-0.00000438,-0.00000271,-0.00000337,-0.0000055
 3,-0.00000002,0.00000150,-0.00000467\\\@


 SIC AS THE CAWSE OF EWERY THING IS, SIC WILBE THE EFFECT.
 -- PROVERBS AND REASONS OF THE YEAR 1585
           AS REPRINTED IN PAISLEY MAGAZINE 1828.
 Job cpu time:       1 days  2 hours 27 minutes  9.9 seconds.
 Elapsed time:       0 days  1 hours 39 minutes 24.8 seconds.
 File lengths (MBytes):  RWF=   1418 Int=      0 D2E=      0 Chk=     41 Scr=      1
 Normal termination of Gaussian 16 at Sun Feb  7 19:34:26 2021.
