 Entering Gaussian System, Link 0=g16
 Initial command:
 /apps/gaussian/16/A.03/g16/l1.exe "/beegfs/scratch/user/q/tla25/Gau-120657.inp" -scrdir="/beegfs/scratch/user/q/tla25/"
 Entering Link 1 = /apps/gaussian/16/A.03/g16/l1.exe PID=    120658.
  
 Copyright (c) 1988,1990,1992,1993,1995,1998,2003,2009,2016,
            Gaussian, Inc.  All Rights Reserved.
  
 This is part of the Gaussian(R) 16 program.  It is based on
 the Gaussian(R) 09 system (copyright 2009, Gaussian, Inc.),
 the Gaussian(R) 03 system (copyright 2003, Gaussian, Inc.),
 the Gaussian(R) 98 system (copyright 1998, Gaussian, Inc.),
 the Gaussian(R) 94 system (copyright 1995, Gaussian, Inc.),
 the Gaussian 92(TM) system (copyright 1992, Gaussian, Inc.),
 the Gaussian 90(TM) system (copyright 1990, Gaussian, Inc.),
 the Gaussian 88(TM) system (copyright 1988, Gaussian, Inc.),
 the Gaussian 86(TM) system (copyright 1986, Carnegie Mellon
 University), and the Gaussian 82(TM) system (copyright 1983,
 Carnegie Mellon University). Gaussian is a federally registered
 trademark of Gaussian, Inc.
  
 This software contains proprietary and confidential information,
 including trade secrets, belonging to Gaussian, Inc.
  
 This software is provided under written license and may be
 used, copied, transmitted, or stored only in accord with that
 written license.
  
 The following legend is applicable only to US Government
 contracts under FAR:
  
                    RESTRICTED RIGHTS LEGEND
  
 Use, reproduction and disclosure by the US Government is
 subject to restrictions as set forth in subparagraphs (a)
 and (c) of the Commercial Computer Software - Restricted
 Rights clause in FAR 52.227-19.
  
 Gaussian, Inc.
 340 Quinnipiac St., Bldg. 40, Wallingford CT 06492
  
  
 ---------------------------------------------------------------
 Warning -- This program may not be used in any manner that
 competes with the business of Gaussian, Inc. or will provide
 assistance to any competitor of Gaussian, Inc.  The licensee
 of this program is prohibited from giving any competitor of
 Gaussian, Inc. access to this program.  By using this program,
 the user acknowledges that Gaussian, Inc. is engaged in the
 business of creating and licensing software in the field of
 computational chemistry and represents and warrants to the
 licensee that it is not a competitor of Gaussian, Inc. and that
 it will not use this program in any manner prohibited above.
 ---------------------------------------------------------------
  

 Cite this work as:
 Gaussian 16, Revision A.03,
 M. J. Frisch, G. W. Trucks, H. B. Schlegel, G. E. Scuseria, 
 M. A. Robb, J. R. Cheeseman, G. Scalmani, V. Barone, 
 G. A. Petersson, H. Nakatsuji, X. Li, M. Caricato, A. V. Marenich, 
 J. Bloino, B. G. Janesko, R. Gomperts, B. Mennucci, H. P. Hratchian, 
 J. V. Ortiz, A. F. Izmaylov, J. L. Sonnenberg, D. Williams-Young, 
 F. Ding, F. Lipparini, F. Egidi, J. Goings, B. Peng, A. Petrone, 
 T. Henderson, D. Ranasinghe, V. G. Zakrzewski, J. Gao, N. Rega, 
 G. Zheng, W. Liang, M. Hada, M. Ehara, K. Toyota, R. Fukuda, 
 J. Hasegawa, M. Ishida, T. Nakajima, Y. Honda, O. Kitao, H. Nakai, 
 T. Vreven, K. Throssell, J. A. Montgomery, Jr., J. E. Peralta, 
 F. Ogliaro, M. J. Bearpark, J. J. Heyd, E. N. Brothers, K. N. Kudin, 
 V. N. Staroverov, T. A. Keith, R. Kobayashi, J. Normand, 
 K. Raghavachari, A. P. Rendell, J. C. Burant, S. S. Iyengar, 
 J. Tomasi, M. Cossi, J. M. Millam, M. Klene, C. Adamo, R. Cammi, 
 J. W. Ochterski, R. L. Martin, K. Morokuma, O. Farkas, 
 J. B. Foresman, and D. J. Fox, Gaussian, Inc., Wallingford CT, 2016.
 
 ******************************************
 Gaussian 16:  ES64L-G16RevA.03 25-Dec-2016
                 7-Feb-2021 
 ******************************************
 %nprocshared=16
 Will use up to   16 processors via shared memory.
 %mem=48GB
 ----------------------------------------------------------------------
 # wB97XD def2tzvp, opt=(ts, noeigen, calcfc, maxcycles=70, maxstep=3),
  freq=noraman, scrf=(iefpcm, solvent=water)
 ----------------------------------------------------------------------
 1/5=1,6=70,8=3,10=4,11=1,18=20,26=3,38=1/1,3;
 2/9=110,12=2,17=6,18=5,40=1/2;
 3/5=44,7=101,11=2,25=1,30=1,70=2201,71=2,72=1,74=-58,140=1/1,2,3;
 4//1;
 5/5=2,38=5,53=1/2;
 8/6=4,10=90,11=11/1;
 11/6=1,8=1,9=11,15=111,16=1/1,2,10;
 10/6=1,13=1/2;
 6/7=2,8=2,9=2,10=2,28=1/1;
 7/10=1,18=20,25=1/1,2,3,16;
 1/5=1,6=70,8=3,10=4,11=1,18=20,26=3/3(2);
 2/9=110/2;
 99//99;
 2/9=110/2;
 3/5=44,7=101,11=2,25=1,30=1,70=2205,71=1,72=1,74=-58/1,2,3;
 4/5=5,16=3,69=1/1;
 5/5=2,38=5,53=1/2;
 7//1,2,3,16;
 1/5=1,6=70,8=3,11=1,18=20,26=3/3(-5);
 2/9=110/2;
 6/7=2,8=2,9=2,10=2,19=2,28=1/1;
 99/9=1/99;
 ------------------------
 3_iteration/TS-191-3.out
 ------------------------
 Symbolic Z-matrix:
 Charge =  0 Multiplicity = 1
 C                    -0.2642   -0.02198  -0.11086 
 C                     1.10135   0.48013  -0.12878 
 O                     1.32848   1.69037  -0.06217 
 C                    -1.35911   0.81641  -0.26564 
 C                    -0.82632   1.65412   2.45559 
 H                    -0.30246   0.70817   2.29393 
 H                    -0.13852   2.35175   2.93173 
 H                    -1.67207   1.4854    3.11706 
 N                    -1.27148   2.15788   1.16316 
 H                    -2.12439   2.70193   1.20764 
 H                    -0.53725   2.71051   0.73525 
 C                    -2.75197   0.25906  -0.21968 
 C                    -3.33034  -0.20067  -1.40089 
 C                    -4.58589  -0.78342  -1.38964 
 C                    -5.28706  -0.90889  -0.19864 
 C                    -4.7177   -0.45349   0.97925 
 C                    -3.45603   0.12288   0.96944 
 H                    -2.79065  -0.10802  -2.33385 
 H                    -5.01788  -1.13879  -2.31628 
 H                    -6.27121  -1.35932  -0.19016 
 H                    -5.25241  -0.54733   1.91554 
 H                    -3.02581   0.4472    1.90436 
 Cl                   -1.25235   2.06765  -1.574 
 Br                   -0.56764  -1.85532   0.35562 
 N                     2.104    -0.44814  -0.21172 
 C                     3.49042  -0.26559  -0.1645 
 C                     4.1144    0.96281   0.05455 
 C                     5.50048   1.03155   0.09481 
 C                     6.28344  -0.09822  -0.07986 
 C                     5.66063  -1.3202   -0.29818 
 C                     4.2814   -1.405    -0.34041 
 H                     1.80602  -1.40427  -0.31402 
 H                     3.51724   1.84922   0.18837 
 H                     5.96981   1.99253   0.26638 
 H                     7.36296  -0.03016  -0.04748 
 H                     6.25154  -2.21677  -0.43746 
 H                     3.80616  -2.36415  -0.51182 
 
 Add virtual bond connecting atoms H8         and H22        Dist= 3.96D+00.
 Add virtual bond connecting atoms N9         and C4         Dist= 3.71D+00.

 GradGradGradGradGradGradGradGradGradGradGradGradGradGradGradGradGradGrad
 Berny optimization.
 Initialization pass.
                           ----------------------------
                           !    Initial Parameters    !
                           ! (Angstroms and Degrees)  !
 --------------------------                            --------------------------
 ! Name  Definition              Value          Derivative Info.                !
 --------------------------------------------------------------------------------
 ! R1    R(1,2)                  1.455          calculate D2E/DX2 analytically  !
 ! R2    R(1,4)                  1.3877         calculate D2E/DX2 analytically  !
 ! R3    R(1,24)                 1.9159         calculate D2E/DX2 analytically  !
 ! R4    R(2,3)                  1.2332         calculate D2E/DX2 analytically  !
 ! R5    R(2,25)                 1.3689         calculate D2E/DX2 analytically  !
 ! R6    R(4,9)                  1.9618         calculate D2E/DX2 analytically  !
 ! R7    R(4,12)                 1.5009         calculate D2E/DX2 analytically  !
 ! R8    R(4,23)                 1.8135         calculate D2E/DX2 analytically  !
 ! R9    R(5,6)                  1.0933         calculate D2E/DX2 analytically  !
 ! R10   R(5,7)                  1.0893         calculate D2E/DX2 analytically  !
 ! R11   R(5,8)                  1.0869         calculate D2E/DX2 analytically  !
 ! R12   R(5,9)                  1.4568         calculate D2E/DX2 analytically  !
 ! R13   R(8,22)                 2.0931         calculate D2E/DX2 analytically  !
 ! R14   R(9,10)                 1.0126         calculate D2E/DX2 analytically  !
 ! R15   R(9,11)                 1.0137         calculate D2E/DX2 analytically  !
 ! R16   R(12,13)                1.3932         calculate D2E/DX2 analytically  !
 ! R17   R(12,17)                1.3886         calculate D2E/DX2 analytically  !
 ! R18   R(13,14)                1.3842         calculate D2E/DX2 analytically  !
 ! R19   R(13,18)                1.0818         calculate D2E/DX2 analytically  !
 ! R20   R(14,15)                1.3878         calculate D2E/DX2 analytically  !
 ! R21   R(14,19)                1.0824         calculate D2E/DX2 analytically  !
 ! R22   R(15,16)                1.3853         calculate D2E/DX2 analytically  !
 ! R23   R(15,20)                1.0824         calculate D2E/DX2 analytically  !
 ! R24   R(16,17)                1.3871         calculate D2E/DX2 analytically  !
 ! R25   R(16,21)                1.0823         calculate D2E/DX2 analytically  !
 ! R26   R(17,22)                1.079          calculate D2E/DX2 analytically  !
 ! R27   R(25,26)                1.3992         calculate D2E/DX2 analytically  !
 ! R28   R(25,32)                1.0067         calculate D2E/DX2 analytically  !
 ! R29   R(26,27)                1.3951         calculate D2E/DX2 analytically  !
 ! R30   R(26,31)                1.3982         calculate D2E/DX2 analytically  !
 ! R31   R(27,28)                1.3884         calculate D2E/DX2 analytically  !
 ! R32   R(27,33)                1.0771         calculate D2E/DX2 analytically  !
 ! R33   R(28,29)                1.3856         calculate D2E/DX2 analytically  !
 ! R34   R(28,34)                1.0831         calculate D2E/DX2 analytically  !
 ! R35   R(29,30)                1.3888         calculate D2E/DX2 analytically  !
 ! R36   R(29,35)                1.0821         calculate D2E/DX2 analytically  !
 ! R37   R(30,31)                1.3825         calculate D2E/DX2 analytically  !
 ! R38   R(30,36)                1.0828         calculate D2E/DX2 analytically  !
 ! R39   R(31,37)                1.0841         calculate D2E/DX2 analytically  !
 ! A1    A(2,1,4)              122.0478         calculate D2E/DX2 analytically  !
 ! A2    A(2,1,24)             118.8056         calculate D2E/DX2 analytically  !
 ! A3    A(4,1,24)             118.7057         calculate D2E/DX2 analytically  !
 ! A4    A(1,2,3)              120.7208         calculate D2E/DX2 analytically  !
 ! A5    A(1,2,25)             117.0097         calculate D2E/DX2 analytically  !
 ! A6    A(3,2,25)             122.2676         calculate D2E/DX2 analytically  !
 ! A7    A(1,4,9)              107.2562         calculate D2E/DX2 analytically  !
 ! A8    A(1,4,12)             120.2942         calculate D2E/DX2 analytically  !
 ! A9    A(1,4,23)             116.7993         calculate D2E/DX2 analytically  !
 ! A10   A(9,4,12)             105.8468         calculate D2E/DX2 analytically  !
 ! A11   A(9,4,23)              92.9247         calculate D2E/DX2 analytically  !
 ! A12   A(12,4,23)            109.4465         calculate D2E/DX2 analytically  !
 ! A13   A(6,5,7)              108.4341         calculate D2E/DX2 analytically  !
 ! A14   A(6,5,8)              109.1789         calculate D2E/DX2 analytically  !
 ! A15   A(6,5,9)              108.3256         calculate D2E/DX2 analytically  !
 ! A16   A(7,5,8)              108.9501         calculate D2E/DX2 analytically  !
 ! A17   A(7,5,9)              111.056          calculate D2E/DX2 analytically  !
 ! A18   A(8,5,9)              110.8439         calculate D2E/DX2 analytically  !
 ! A19   A(5,8,22)             103.1596         calculate D2E/DX2 analytically  !
 ! A20   A(4,9,5)              115.0445         calculate D2E/DX2 analytically  !
 ! A21   A(4,9,10)             111.2074         calculate D2E/DX2 analytically  !
 ! A22   A(4,9,11)              95.6063         calculate D2E/DX2 analytically  !
 ! A23   A(5,9,10)             113.8402         calculate D2E/DX2 analytically  !
 ! A24   A(5,9,11)             109.9792         calculate D2E/DX2 analytically  !
 ! A25   A(10,9,11)            109.6155         calculate D2E/DX2 analytically  !
 ! A26   A(4,12,13)            118.8032         calculate D2E/DX2 analytically  !
 ! A27   A(4,12,17)            122.2187         calculate D2E/DX2 analytically  !
 ! A28   A(13,12,17)           118.893          calculate D2E/DX2 analytically  !
 ! A29   A(12,13,14)           120.5676         calculate D2E/DX2 analytically  !
 ! A30   A(12,13,18)           119.7235         calculate D2E/DX2 analytically  !
 ! A31   A(14,13,18)           119.7074         calculate D2E/DX2 analytically  !
 ! A32   A(13,14,15)           120.2198         calculate D2E/DX2 analytically  !
 ! A33   A(13,14,19)           119.5553         calculate D2E/DX2 analytically  !
 ! A34   A(15,14,19)           120.2247         calculate D2E/DX2 analytically  !
 ! A35   A(14,15,16)           119.4954         calculate D2E/DX2 analytically  !
 ! A36   A(14,15,20)           120.2489         calculate D2E/DX2 analytically  !
 ! A37   A(16,15,20)           120.2557         calculate D2E/DX2 analytically  !
 ! A38   A(15,16,17)           120.2929         calculate D2E/DX2 analytically  !
 ! A39   A(15,16,21)           120.2666         calculate D2E/DX2 analytically  !
 ! A40   A(17,16,21)           119.4402         calculate D2E/DX2 analytically  !
 ! A41   A(12,17,16)           120.5289         calculate D2E/DX2 analytically  !
 ! A42   A(12,17,22)           120.6856         calculate D2E/DX2 analytically  !
 ! A43   A(16,17,22)           118.7771         calculate D2E/DX2 analytically  !
 ! A44   A(8,22,17)            155.3585         calculate D2E/DX2 analytically  !
 ! A45   A(2,25,26)            129.4388         calculate D2E/DX2 analytically  !
 ! A46   A(2,25,32)            115.6839         calculate D2E/DX2 analytically  !
 ! A47   A(26,25,32)           114.8751         calculate D2E/DX2 analytically  !
 ! A48   A(25,26,27)           124.2888         calculate D2E/DX2 analytically  !
 ! A49   A(25,26,31)           116.7436         calculate D2E/DX2 analytically  !
 ! A50   A(27,26,31)           118.9655         calculate D2E/DX2 analytically  !
 ! A51   A(26,27,28)           119.6485         calculate D2E/DX2 analytically  !
 ! A52   A(26,27,33)           119.7452         calculate D2E/DX2 analytically  !
 ! A53   A(28,27,33)           120.6061         calculate D2E/DX2 analytically  !
 ! A54   A(27,28,29)           121.3396         calculate D2E/DX2 analytically  !
 ! A55   A(27,28,34)           118.7581         calculate D2E/DX2 analytically  !
 ! A56   A(29,28,34)           119.9023         calculate D2E/DX2 analytically  !
 ! A57   A(28,29,30)           118.9358         calculate D2E/DX2 analytically  !
 ! A58   A(28,29,35)           120.5733         calculate D2E/DX2 analytically  !
 ! A59   A(30,29,35)           120.4909         calculate D2E/DX2 analytically  !
 ! A60   A(29,30,31)           120.4089         calculate D2E/DX2 analytically  !
 ! A61   A(29,30,36)           120.2681         calculate D2E/DX2 analytically  !
 ! A62   A(31,30,36)           119.323          calculate D2E/DX2 analytically  !
 ! A63   A(26,31,30)           120.7018         calculate D2E/DX2 analytically  !
 ! A64   A(26,31,37)           119.5324         calculate D2E/DX2 analytically  !
 ! A65   A(30,31,37)           119.7658         calculate D2E/DX2 analytically  !
 ! D1    D(4,1,2,3)             12.031          calculate D2E/DX2 analytically  !
 ! D2    D(4,1,2,25)          -168.4526         calculate D2E/DX2 analytically  !
 ! D3    D(24,1,2,3)          -160.247          calculate D2E/DX2 analytically  !
 ! D4    D(24,1,2,25)           19.2693         calculate D2E/DX2 analytically  !
 ! D5    D(2,1,4,9)            -58.2186         calculate D2E/DX2 analytically  !
 ! D6    D(2,1,4,12)          -179.0579         calculate D2E/DX2 analytically  !
 ! D7    D(2,1,4,23)            44.3002         calculate D2E/DX2 analytically  !
 ! D8    D(24,1,4,9)           114.0669         calculate D2E/DX2 analytically  !
 ! D9    D(24,1,4,12)           -6.7723         calculate D2E/DX2 analytically  !
 ! D10   D(24,1,4,23)         -143.4142         calculate D2E/DX2 analytically  !
 ! D11   D(1,2,25,26)         -175.6024         calculate D2E/DX2 analytically  !
 ! D12   D(1,2,25,32)            3.8262         calculate D2E/DX2 analytically  !
 ! D13   D(3,2,25,26)            3.9058         calculate D2E/DX2 analytically  !
 ! D14   D(3,2,25,32)         -176.6655         calculate D2E/DX2 analytically  !
 ! D15   D(1,4,9,5)            -38.7723         calculate D2E/DX2 analytically  !
 ! D16   D(1,4,9,10)          -170.0605         calculate D2E/DX2 analytically  !
 ! D17   D(1,4,9,11)            76.3668         calculate D2E/DX2 analytically  !
 ! D18   D(12,4,9,5)            90.8153         calculate D2E/DX2 analytically  !
 ! D19   D(12,4,9,10)          -40.4729         calculate D2E/DX2 analytically  !
 ! D20   D(12,4,9,11)         -154.0457         calculate D2E/DX2 analytically  !
 ! D21   D(23,4,9,5)          -158.0211         calculate D2E/DX2 analytically  !
 ! D22   D(23,4,9,10)           70.6907         calculate D2E/DX2 analytically  !
 ! D23   D(23,4,9,11)          -42.882          calculate D2E/DX2 analytically  !
 ! D24   D(1,4,12,13)          -88.4631         calculate D2E/DX2 analytically  !
 ! D25   D(1,4,12,17)           88.1441         calculate D2E/DX2 analytically  !
 ! D26   D(9,4,12,13)          150.0057         calculate D2E/DX2 analytically  !
 ! D27   D(9,4,12,17)          -33.3871         calculate D2E/DX2 analytically  !
 ! D28   D(23,4,12,13)          51.0037         calculate D2E/DX2 analytically  !
 ! D29   D(23,4,12,17)        -132.3891         calculate D2E/DX2 analytically  !
 ! D30   D(6,5,8,22)           -72.2936         calculate D2E/DX2 analytically  !
 ! D31   D(7,5,8,22)           169.4506         calculate D2E/DX2 analytically  !
 ! D32   D(9,5,8,22)            46.9573         calculate D2E/DX2 analytically  !
 ! D33   D(6,5,9,4)             19.4407         calculate D2E/DX2 analytically  !
 ! D34   D(6,5,9,10)           149.4572         calculate D2E/DX2 analytically  !
 ! D35   D(6,5,9,11)           -87.0948         calculate D2E/DX2 analytically  !
 ! D36   D(7,5,9,4)            138.4174         calculate D2E/DX2 analytically  !
 ! D37   D(7,5,9,10)           -91.5661         calculate D2E/DX2 analytically  !
 ! D38   D(7,5,9,11)            31.8819         calculate D2E/DX2 analytically  !
 ! D39   D(8,5,9,4)           -100.3222         calculate D2E/DX2 analytically  !
 ! D40   D(8,5,9,10)            29.6943         calculate D2E/DX2 analytically  !
 ! D41   D(8,5,9,11)           153.1423         calculate D2E/DX2 analytically  !
 ! D42   D(5,8,22,17)          -21.6568         calculate D2E/DX2 analytically  !
 ! D43   D(4,12,13,14)         176.7262         calculate D2E/DX2 analytically  !
 ! D44   D(4,12,13,18)          -2.8254         calculate D2E/DX2 analytically  !
 ! D45   D(17,12,13,14)          0.0045         calculate D2E/DX2 analytically  !
 ! D46   D(17,12,13,18)       -179.5471         calculate D2E/DX2 analytically  !
 ! D47   D(4,12,17,16)        -177.0158         calculate D2E/DX2 analytically  !
 ! D48   D(4,12,17,22)           1.9156         calculate D2E/DX2 analytically  !
 ! D49   D(13,12,17,16)         -0.4115         calculate D2E/DX2 analytically  !
 ! D50   D(13,12,17,22)        178.5199         calculate D2E/DX2 analytically  !
 ! D51   D(12,13,14,15)          0.3838         calculate D2E/DX2 analytically  !
 ! D52   D(12,13,14,19)       -179.7359         calculate D2E/DX2 analytically  !
 ! D53   D(18,13,14,15)        179.9354         calculate D2E/DX2 analytically  !
 ! D54   D(18,13,14,19)         -0.1843         calculate D2E/DX2 analytically  !
 ! D55   D(13,14,15,16)         -0.3637         calculate D2E/DX2 analytically  !
 ! D56   D(13,14,15,20)        179.648          calculate D2E/DX2 analytically  !
 ! D57   D(19,14,15,16)        179.7568         calculate D2E/DX2 analytically  !
 ! D58   D(19,14,15,20)         -0.2314         calculate D2E/DX2 analytically  !
 ! D59   D(14,15,16,17)         -0.0421         calculate D2E/DX2 analytically  !
 ! D60   D(14,15,16,21)       -179.847          calculate D2E/DX2 analytically  !
 ! D61   D(20,15,16,17)        179.9462         calculate D2E/DX2 analytically  !
 ! D62   D(20,15,16,21)          0.1413         calculate D2E/DX2 analytically  !
 ! D63   D(15,16,17,12)          0.4333         calculate D2E/DX2 analytically  !
 ! D64   D(15,16,17,22)       -178.5182         calculate D2E/DX2 analytically  !
 ! D65   D(21,16,17,12)       -179.7602         calculate D2E/DX2 analytically  !
 ! D66   D(21,16,17,22)          1.2883         calculate D2E/DX2 analytically  !
 ! D67   D(12,17,22,8)          16.2255         calculate D2E/DX2 analytically  !
 ! D68   D(16,17,22,8)        -164.8247         calculate D2E/DX2 analytically  !
 ! D69   D(2,25,26,27)           3.5202         calculate D2E/DX2 analytically  !
 ! D70   D(2,25,26,31)        -177.0107         calculate D2E/DX2 analytically  !
 ! D71   D(32,25,26,27)       -175.9123         calculate D2E/DX2 analytically  !
 ! D72   D(32,25,26,31)          3.5568         calculate D2E/DX2 analytically  !
 ! D73   D(25,26,27,28)        179.4065         calculate D2E/DX2 analytically  !
 ! D74   D(25,26,27,33)         -0.7468         calculate D2E/DX2 analytically  !
 ! D75   D(31,26,27,28)         -0.0516         calculate D2E/DX2 analytically  !
 ! D76   D(31,26,27,33)        179.7951         calculate D2E/DX2 analytically  !
 ! D77   D(25,26,31,30)       -179.4746         calculate D2E/DX2 analytically  !
 ! D78   D(25,26,31,37)          0.538          calculate D2E/DX2 analytically  !
 ! D79   D(27,26,31,30)          0.0241         calculate D2E/DX2 analytically  !
 ! D80   D(27,26,31,37)       -179.9634         calculate D2E/DX2 analytically  !
 ! D81   D(26,27,28,29)          0.0634         calculate D2E/DX2 analytically  !
 ! D82   D(26,27,28,34)       -179.9645         calculate D2E/DX2 analytically  !
 ! D83   D(33,27,28,29)       -179.7819         calculate D2E/DX2 analytically  !
 ! D84   D(33,27,28,34)          0.1902         calculate D2E/DX2 analytically  !
 ! D85   D(27,28,29,30)         -0.0456         calculate D2E/DX2 analytically  !
 ! D86   D(27,28,29,35)        179.9134         calculate D2E/DX2 analytically  !
 ! D87   D(34,28,29,30)        179.9826         calculate D2E/DX2 analytically  !
 ! D88   D(34,28,29,35)         -0.0584         calculate D2E/DX2 analytically  !
 ! D89   D(28,29,30,31)          0.017          calculate D2E/DX2 analytically  !
 ! D90   D(28,29,30,36)        179.9966         calculate D2E/DX2 analytically  !
 ! D91   D(35,29,30,31)       -179.942          calculate D2E/DX2 analytically  !
 ! D92   D(35,29,30,36)          0.0376         calculate D2E/DX2 analytically  !
 ! D93   D(29,30,31,26)         -0.0068         calculate D2E/DX2 analytically  !
 ! D94   D(29,30,31,37)        179.9806         calculate D2E/DX2 analytically  !
 ! D95   D(36,30,31,26)       -179.9866         calculate D2E/DX2 analytically  !
 ! D96   D(36,30,31,37)          0.0008         calculate D2E/DX2 analytically  !
 --------------------------------------------------------------------------------
 Trust Radius=3.00D-02 FncErr=1.00D-07 GrdErr=1.00D-06 EigMax=2.50D+02 EigMin=1.00D-04
 Number of steps in this run=     70 maximum allowed number of steps=    222.
 Search for a saddle point of order  1.
 GradGradGradGradGradGradGradGradGradGradGradGradGradGradGradGradGradGrad

                          Input orientation:                          
 ---------------------------------------------------------------------
 Center     Atomic      Atomic             Coordinates (Angstroms)
 Number     Number       Type             X           Y           Z
 ---------------------------------------------------------------------
      1          6           0       -0.264200   -0.021980   -0.110860
      2          6           0        1.101350    0.480130   -0.128780
      3          8           0        1.328480    1.690370   -0.062170
      4          6           0       -1.359110    0.816410   -0.265640
      5          6           0       -0.826320    1.654120    2.455590
      6          1           0       -0.302460    0.708170    2.293930
      7          1           0       -0.138520    2.351750    2.931730
      8          1           0       -1.672070    1.485400    3.117060
      9          7           0       -1.271480    2.157880    1.163160
     10          1           0       -2.124390    2.701930    1.207640
     11          1           0       -0.537250    2.710510    0.735250
     12          6           0       -2.751970    0.259060   -0.219680
     13          6           0       -3.330340   -0.200670   -1.400890
     14          6           0       -4.585890   -0.783420   -1.389640
     15          6           0       -5.287060   -0.908890   -0.198640
     16          6           0       -4.717700   -0.453490    0.979250
     17          6           0       -3.456030    0.122880    0.969440
     18          1           0       -2.790650   -0.108020   -2.333850
     19          1           0       -5.017880   -1.138790   -2.316280
     20          1           0       -6.271210   -1.359320   -0.190160
     21          1           0       -5.252410   -0.547330    1.915540
     22          1           0       -3.025810    0.447200    1.904360
     23         17           0       -1.252350    2.067650   -1.574000
     24         35           0       -0.567640   -1.855320    0.355620
     25          7           0        2.104000   -0.448140   -0.211720
     26          6           0        3.490420   -0.265590   -0.164500
     27          6           0        4.114400    0.962810    0.054550
     28          6           0        5.500480    1.031550    0.094810
     29          6           0        6.283440   -0.098220   -0.079860
     30          6           0        5.660630   -1.320200   -0.298180
     31          6           0        4.281400   -1.405000   -0.340410
     32          1           0        1.806020   -1.404270   -0.314020
     33          1           0        3.517240    1.849220    0.188370
     34          1           0        5.969810    1.992530    0.266380
     35          1           0        7.362960   -0.030160   -0.047480
     36          1           0        6.251540   -2.216770   -0.437460
     37          1           0        3.806160   -2.364150   -0.511820
 ---------------------------------------------------------------------
                    Distance matrix (angstroms):
                    1          2          3          4          5
     1  C    0.000000
     2  C    1.455047   0.000000
     3  O    2.339047   1.233169   0.000000
     4  C    1.387690   2.487102   2.833434   0.000000
     5  C    3.116401   3.431200   3.314150   2.896673   0.000000
     6  H    2.513483   2.809307   3.029173   2.771213   1.093336
     7  H    3.861055   3.795650   3.398963   3.751038   1.089250
     8  H    3.830634   4.386103   4.376393   3.462391   1.086877
     9  N    2.718369   3.180295   2.912008   1.961808   1.456817
    10  H    3.552244   4.138576   3.815492   2.512249   2.083332
    11  H    2.873493   2.899337   2.271016   2.294526   2.039385
    12  C    2.505958   3.860727   4.327069   1.500936   3.579300
    13  C    3.331264   4.660647   5.203154   2.491785   4.958104
    14  C    4.570785   5.960791   6.546876   3.772922   5.904385
    15  C    5.101317   6.538046   7.109159   4.290681   5.788969
    16  C    4.605236   5.996726   6.498999   3.800332   4.665237
    17  C    3.372805   4.701428   5.139337   2.530510   3.386549
    18  H    3.366309   4.511753   5.036067   2.679808   5.468315
    19  H    5.358042   6.697091   7.304892   4.627584   6.938319
    20  H    6.154587   7.598815   8.189767   5.372916   6.762222
    21  H    5.409670   6.753161   7.226808   4.666382   4.972757
    22  H    3.450758   4.600890   4.936857   2.760997   2.568709
    23  Cl   2.735648   3.185716   3.014739   1.813506   4.073095
    24  Br   1.915937   2.911099   4.042491   2.854913   4.097921
    25  N    2.408351   1.368894   2.279698   3.687157   4.485623
    26  C    3.762897   2.503004   2.917231   4.969798   5.402259
    27  C    4.491025   3.056969   2.881721   5.484821   5.536571
    28  C    5.863767   4.439189   4.226615   6.872422   6.781539
    29  C    6.548157   5.214493   5.267921   7.699327   7.749057
    30  C    6.068284   4.904785   5.280791   7.337773   7.649206
    31  C    4.756881   3.702867   4.287012   6.062640   6.577586
    32  H    2.497561   2.020356   3.141380   3.866757   4.894252
    33  H    4.229683   2.794909   2.208772   5.005158   4.903556
    34  H    6.562274   5.113258   4.662745   7.441732   7.148045
    35  H    7.627428   6.282895   6.274981   8.765773   8.727340
    36  H    6.883214   5.821770   6.296277   8.194614   8.570276
    37  H    4.713211   3.943684   4.772862   6.070962   6.812627
                    6          7          8          9         10
     6  H    0.000000
     7  H    1.770599   0.000000
     8  H    1.776925   1.771069   0.000000
     9  N    2.078292   2.109271   2.104858   0.000000
    10  H    2.911105   2.653072   2.308771   1.012632   0.000000
    11  H    2.548328   2.261022   2.908905   1.013706   1.655971
    12  C    3.538366   4.597919   3.715364   2.776619   2.898053
    13  C    4.862689   5.956019   5.099467   4.046729   4.084585
    14  C    5.843056   6.948570   5.826511   5.114034   4.995249
    15  C    5.802932   6.851164   5.458447   5.233016   5.001812
    16  C    4.751019   5.714056   4.195878   4.327760   4.090733
    17  C    3.470136   4.452451   3.106645   2.991824   2.912302
    18  H    5.317293   6.388317   5.788146   4.435229   4.569669
    19  H    6.848393   7.970799   6.899420   6.083588   5.961663
    20  H    6.787576   7.818448   6.338945   6.260948   5.970236
    21  H    5.120690   5.965667   4.288878   4.871554   4.565449
    22  H    2.763423   3.608219   2.093111   2.559976   2.526219
    23  Cl   4.208487   4.650047   4.745653   2.738714   2.983335
    24  Br   3.224724   4.951760   4.472776   4.153707   4.890597
    25  N    3.661473   4.769650   5.392407   4.480569   5.460477
    26  C    4.623638   5.441168   6.362854   5.505595   6.497310
    27  C    4.958661   5.319271   6.567747   5.627158   6.578499
    28  C    6.214082   6.448982   7.796502   6.947621   7.884618
    29  C    7.046930   7.504239   8.718847   7.981974   8.954893
    30  C    6.811150   7.585887   8.561761   7.892193   8.891094
    31  C    5.693594   6.660012   7.466747   6.766780   7.765145
    32  H    3.963520   5.331399   5.676232   4.933759   5.884254
    33  H    4.508380   4.598167   5.969801   4.896665   5.796034
    34  H    6.715796   6.674191   8.172019   7.298482   8.179566
    35  H    8.048975   8.415545   9.692420   8.989256   9.952359
    36  H    7.679237   8.547262   9.440565   8.848467   9.851709
    37  H    5.847405   7.046861   7.615695   7.002624   7.987060
                   11         12         13         14         15
    11  H    0.000000
    12  C    3.438965   0.000000
    13  C    4.565021   1.393241   0.000000
    14  C    5.754493   2.412226   1.384243   0.000000
    15  C    6.044245   2.791278   2.403276   1.387755   0.000000
    16  C    5.248485   2.410240   2.766542   2.395385   1.385274
    17  C    3.907678   1.388615   2.395610   2.768252   2.404502
    18  H    4.737225   2.146150   1.081787   2.137893   3.381209
    19  H    6.648683   3.388815   2.136773   1.082389   2.147024
    20  H    7.092122   3.873639   3.384827   2.147258   1.082363
    21  H    5.851439   3.385503   3.848796   3.379971   2.145153
    22  H    3.561225   2.149868   3.381886   3.846909   3.372661
    23  Cl   2.501454   2.711833   3.081118   4.390339   5.199066
    24  Br   4.581686   3.094006   3.668202   4.510126   4.845189
    25  N    4.224929   4.907203   5.568430   6.801069   7.405419
    26  C    5.088108   6.264642   6.932218   8.185102   8.801088
    27  C    5.015541   6.907786   7.674382   8.990553   9.589307
    28  C    6.299465   8.294491   9.040955  10.355316  10.964599
    29  C    7.421265   9.043552   9.704658  10.969383  11.599473
    30  C    7.465140   8.559910   9.127259  10.318459  10.955866
    31  C    6.427585   7.228552   7.779050   8.950758   9.582361
    32  H    4.850082   4.852921   5.386291   6.511446   7.111294
    33  H    4.180884   6.480595   7.322373   8.664965   9.234319
    34  H    6.563320   8.905651   9.699624  11.039525  11.634071
    35  H    8.398646  10.120529  10.779956  12.047565  12.681405
    36  H    8.470006   9.340255   9.838967  10.973196  11.614942
    37  H    6.795040   7.069345   7.510042   8.584625   9.214256
                   16         17         18         19         20
    16  C    0.000000
    17  C    1.387123   0.000000
    18  H    3.848312   3.377539   0.000000
    19  H    3.379388   3.850603   2.454251   0.000000
    20  H    2.145097   3.386270   4.274980   2.477873   0.000000
    21  H    1.082294   2.138052   4.930575   4.279384   2.476137
    22  H    2.128277   1.079050   4.280887   4.929250   4.264170
    23  Cl   4.988375   3.886827   2.770790   5.001145   6.232824
    24  Br   4.424595   3.554272   3.902317   5.239952   5.751052
    25  N    6.924885   5.712717   5.345719   7.458374   8.424658
    26  C    8.289554   7.049106   6.647010   8.819513   9.822745
    27  C    8.992606   7.671631   7.384500   9.666235  10.644861
    28  C   10.363338   9.044873   8.714347  11.007253  12.015413
    29  C   11.057713   9.798326   9.349849  11.567376  12.618311
    30  C   10.492509   9.316804   8.777099  10.869048  11.932393
    31  C    9.144981   7.994870   7.461223   9.510601  10.553778
    32  H    6.718292   5.627489   5.185494   7.116540   8.078305
    33  H    8.587328   7.226120   7.069785   9.383483  10.307850
    34  H   10.986995   9.635162   9.376522  11.713438  12.699838
    35  H   12.131600  10.867755  10.408138  12.635732  13.699548
    36  H   11.200020  10.084158   9.476514  11.475706  12.554507
    37  H    8.861721   7.817855   7.206096   9.089624  10.132450
                   21         22         23         24         25
    21  H    0.000000
    22  H    2.438639   0.000000
    23  Cl   5.917389   4.227293   0.000000
    24  Br   5.107960   3.707127   4.425150   0.000000
    25  N    7.658449   5.620888   4.410226   3.072408   0.000000
    26  C    8.991275   6.873828   5.470335   4.389262   1.399184
    27  C    9.668554   7.393933   5.716192   5.473025   2.470504
    28  C   11.019644   8.735763   7.032719   6.724888   3.717461
    29  C   11.715765   9.533979   7.981953   7.086208   4.196135
    30  C   11.162093   9.133955   7.803495   6.285313   3.663002
    31  C    9.834553   7.865428   6.648566   4.919394   2.381851
    32  H    7.451625   5.629896   4.795352   2.507215   1.006699
    33  H    9.253828   6.908096   5.089464   5.517049   2.726753
    34  H   11.623633   9.273198   7.453337   7.586314   4.596731
    35  H   12.777655  10.581309   8.997479   8.147890   5.278100
    36  H   11.860207   9.932275   8.715294   6.874652   4.514543
    37  H    9.552518   7.772865   6.808642   4.487927   2.580408
                   26         27         28         29         30
    26  C    0.000000
    27  C    1.395099   0.000000
    28  C    2.406274   1.388367   0.000000
    29  C    2.799310   2.418385   1.385610   0.000000
    30  C    2.416585   2.779817   2.389732   1.388809   0.000000
    31  C    1.398159   2.406326   2.759048   2.404938   1.382480
    32  H    2.038664   3.326790   4.444029   4.669892   3.855559
    33  H    2.144215   1.077140   2.147226   3.393572   3.856951
    34  H    3.381145   2.132543   1.083139   2.142308   3.374685
    35  H    3.881454   3.398462   2.148559   1.082148   2.150577
    36  H    3.391960   3.862534   3.376238   2.148755   1.082779
    37  H    2.150413   3.388871   3.843111   3.384959   2.138816
                   31         32         33         34         35
    31  C    0.000000
    32  H    2.475521   0.000000
    33  H    3.384301   3.710238   0.000000
    34  H    3.842152   5.404837   2.457992   0.000000
    35  H    3.387035   5.730515   4.286870   2.476015   0.000000
    36  H    2.133036   4.520845   4.939669   4.277028   2.483667
    37  H    1.084068   2.227342   4.280914   4.926219   4.279480
                   36         37
    36  H    0.000000
    37  H    2.450945   0.000000
 Stoichiometry    C16H16BrClN2O
 Framework group  C1[X(C16H16BrClN2O)]
 Deg. of freedom   105
 Full point group                 C1      NOp   1
 Largest Abelian subgroup         C1      NOp   1
 Largest concise Abelian subgroup C1      NOp   1
                         Standard orientation:                         
 ---------------------------------------------------------------------
 Center     Atomic      Atomic             Coordinates (Angstroms)
 Number     Number       Type             X           Y           Z
 ---------------------------------------------------------------------
      1          6           0       -0.264201   -0.021979   -0.110860
      2          6           0        1.101349    0.480131   -0.128780
      3          8           0        1.328479    1.690371   -0.062170
      4          6           0       -1.359111    0.816410   -0.265640
      5          6           0       -0.826321    1.654121    2.455590
      6          1           0       -0.302461    0.708171    2.293930
      7          1           0       -0.138521    2.351751    2.931730
      8          1           0       -1.672071    1.485400    3.117060
      9          7           0       -1.271481    2.157880    1.163160
     10          1           0       -2.124391    2.701930    1.207640
     11          1           0       -0.537251    2.710511    0.735250
     12          6           0       -2.751971    0.259060   -0.219680
     13          6           0       -3.330341   -0.200670   -1.400890
     14          6           0       -4.585891   -0.783420   -1.389640
     15          6           0       -5.287061   -0.908890   -0.198640
     16          6           0       -4.717701   -0.453490    0.979250
     17          6           0       -3.456031    0.122880    0.969440
     18          1           0       -2.790651   -0.108020   -2.333850
     19          1           0       -5.017881   -1.138790   -2.316280
     20          1           0       -6.271211   -1.359320   -0.190160
     21          1           0       -5.252411   -0.547330    1.915540
     22          1           0       -3.025811    0.447200    1.904360
     23         17           0       -1.252351    2.067650   -1.574000
     24         35           0       -0.567641   -1.855319    0.355620
     25          7           0        2.103999   -0.448139   -0.211720
     26          6           0        3.490419   -0.265589   -0.164500
     27          6           0        4.114399    0.962811    0.054550
     28          6           0        5.500479    1.031551    0.094810
     29          6           0        6.283439   -0.098219   -0.079860
     30          6           0        5.660629   -1.320199   -0.298180
     31          6           0        4.281399   -1.404999   -0.340410
     32          1           0        1.806019   -1.404269   -0.314020
     33          1           0        3.517239    1.849221    0.188370
     34          1           0        5.969809    1.992531    0.266380
     35          1           0        7.362959   -0.030159   -0.047480
     36          1           0        6.251539   -2.216769   -0.437460
     37          1           0        3.806159   -2.364149   -0.511820
 ---------------------------------------------------------------------
 Rotational constants (GHZ):           0.4941166           0.1317922           0.1189899
 Standard basis: def2TZVP (5D, 7F)
 There are   877 symmetry adapted cartesian basis functions of A   symmetry.
 There are   770 symmetry adapted basis functions of A   symmetry.
   770 basis functions,  1280 primitive gaussians,   877 cartesian basis functions
    93 alpha electrons       93 beta electrons
       nuclear repulsion energy      2264.8441405870 Hartrees.
 NAtoms=   37 NActive=   37 NUniq=   37 SFac= 1.00D+00 NAtFMM=   60 NAOKFM=F Big=F
 Integral buffers will be    131072 words long.
 Raffenetti 2 integral format.
 Two-electron integral symmetry is turned on.
 Nuclear repulsion after empirical dispersion term =     2264.8149906202 Hartrees.
 Force inversion solution in PCM.
 ------------------------------------------------------------------------------
 Polarizable Continuum Model (PCM)
 =================================
 Model                : PCM.
 Atomic radii         : UFF (Universal Force Field).
 Polarization charges : Total charges.
 Charge compensation  : None.
 Solution method      : Matrix inversion.
 Cavity type          : Scaled VdW (van der Waals Surface) (Alpha=1.100).
 Cavity algorithm     : GePol (No added spheres)
                        Default sphere list used, NSphG=   37.
                        Lebedev-Laikov grids with approx.  5.0 points / Ang**2.
                        Smoothing algorithm: York/Karplus (Gamma=1.0000).
                        Polarization charges: spherical gaussians, with
                                              point-specific exponents (IZeta= 3).
                        Self-potential: point-specific (ISelfS= 7).
                        Self-field    : sphere-specific E.n sum rule (ISelfD= 2).
 1st derivatives      : Analytical E(r).r(x)/FMM algorithm (CHGder, D1EAlg=3).
                        Cavity 1st derivative terms included.
 2nd derivatives      : Analytical E(r).r(xy)/FMM algorithm (CHGder, D2EAlg=3).
                        Cavity 2nd derivative terms included.
 Solvent              : Water, Eps=  78.355300 Eps(inf)=   1.777849
 ------------------------------------------------------------------------------
 One-electron integrals computed using PRISM.
   1 Symmetry operations used in ECPInt.
 ECPInt:  NShTT=   45753 NPrTT=  147721 LenC2=   38374 LenP2D=   86084.
 LDataN:  DoStor=T MaxTD1= 6 Len=  172
 NBasis=   770 RedAO= T EigKep=  6.94D-06  NBF=   770
 NBsUse=   770 1.00D-06 EigRej= -1.00D+00 NBFU=   770
 ExpMin= 9.52D-02 ExpMax= 5.65D+05 ExpMxC= 5.46D+03 IAcc=3 IRadAn=         5 AccDes= 0.00D+00
 Harris functional with IExCor= 4639 and IRadAn=       5 diagonalized for initial guess.
 HarFok:  IExCor= 4639 AccDes= 0.00D+00 IRadAn=         5 IDoV= 1 UseB2=F ITyADJ=14
 ICtDFT=  3500011 ScaDFX=  1.000000  1.000000  1.000000  1.000000
 FoFCou: FMM=F IPFlag=           0 FMFlag=      100000 FMFlg1=           0
         NFxFlg=           0 DoJE=T BraDBF=F KetDBF=T FulRan=T
         wScrn=  0.000000 ICntrl=       500 IOpCl=  0 I1Cent=   200000004 NGrid=           0
         NMat0=    1 NMatS0=      1 NMatT0=    0 NMatD0=    1 NMtDS0=    0 NMtDT0=    0
 Petite list used in FoFCou.
 Requested convergence on RMS density matrix=1.00D-08 within 128 cycles.
 Requested convergence on MAX density matrix=1.00D-06.
 Requested convergence on             energy=1.00D-06.
 No special actions if energy rises.
 Inv3:  Mode=1 IEnd=    24659067.
 Iteration    1 A*A^-1 deviation from unit magnitude is 8.22D-15 for   2867.
 Iteration    1 A*A^-1 deviation from orthogonality  is 3.04D-15 for   2843   1814.
 Iteration    1 A^-1*A deviation from unit magnitude is 8.10D-15 for   2867.
 Iteration    1 A^-1*A deviation from orthogonality  is 2.11D-14 for   1329   1305.
 Error on total polarization charges =  0.01908
 SCF Done:  E(RwB97XD) =  -3838.48717413     A.U. after   16 cycles
            NFock= 16  Conv=0.41D-08     -V/T= 2.0021
 DoSCS=F DFT=T ScalE2(SS,OS)=  1.000000  1.000000
 Range of M.O.s used for correlation:     1   770
 NBasis=   770 NAE=    93 NBE=    93 NFC=     0 NFV=     0
 NROrb=    770 NOA=    93 NOB=    93 NVA=   677 NVB=   677

 **** Warning!!: The largest alpha MO coefficient is  0.67696651D+02

   1 Symmetry operations used in ECPInt.
 ECPInt:  NShTT=   45753 NPrTT=  147721 LenC2=   38374 LenP2D=   86084.
 LDataN:  DoStor=T MaxTD1= 7 Len=  274
 Number of processors reduced to  12 by ecpmxn.
 Symmetrizing basis deriv contribution to polar:
 IMax=3 JMax=2 DiffMx= 0.00D+00
 G2DrvN: will do    38 centers at a time, making    1 passes.
 Calling FoFCou, ICntrl=  3107 FMM=F I1Cent=   0 AccDes= 0.00D+00.
 NEqPCM:  Using equilibrium solvation (IEInf=0, Eps=  78.3553, EpsInf=   1.7778)
 G2PCM: DoFxE=T DoFxN=T DoGrad=T DoDP/DQ/DG/TGxP=FFFF NFrqRd=   0 IEInf=0 SqF1=F DoCFld=F IF1Alg=4.
 End of G2Drv F.D. properties file   721 does not exist.
 End of G2Drv F.D. properties file   722 does not exist.
 End of G2Drv F.D. properties file   788 does not exist.
          IDoAtm=1111111111111111111111111111111111111
 NEqPCM:  Using equilibrium solvation (IEInf=0, Eps=  78.3553, EpsInf=   1.7778)
          Differentiating once with respect to nuclear coordinates.
 CalDSu exits because no D1Ps are significant.
          There are   114 degrees of freedom in the 1st order CPHF.  IDoFFX=6 NUNeed=     0.
    108 vectors produced by pass  0 Test12= 6.30D-14 1.00D-09 XBig12= 1.39D-01 1.09D-01.
 AX will form   108 AO Fock derivatives at one time.
    108 vectors produced by pass  1 Test12= 6.30D-14 1.00D-09 XBig12= 3.73D-02 3.43D-02.
    108 vectors produced by pass  2 Test12= 6.30D-14 1.00D-09 XBig12= 1.21D-03 4.83D-03.
    108 vectors produced by pass  3 Test12= 6.30D-14 1.00D-09 XBig12= 2.19D-05 4.70D-04.
    108 vectors produced by pass  4 Test12= 6.30D-14 1.00D-09 XBig12= 2.66D-07 4.18D-05.
    108 vectors produced by pass  5 Test12= 6.30D-14 1.00D-09 XBig12= 2.32D-09 3.78D-06.
    108 vectors produced by pass  6 Test12= 6.30D-14 1.00D-09 XBig12= 1.73D-11 2.93D-07.
     64 vectors produced by pass  7 Test12= 6.30D-14 1.00D-09 XBig12= 1.28D-13 2.28D-08.
     20 vectors produced by pass  8 Test12= 6.30D-14 1.00D-09 XBig12= 1.25D-14 8.88D-09.
      8 vectors produced by pass  9 Test12= 6.30D-14 1.00D-09 XBig12= 7.38D-15 1.02D-08.
      6 vectors produced by pass 10 Test12= 6.30D-14 1.00D-09 XBig12= 3.52D-15 4.43D-09.
      5 vectors produced by pass 11 Test12= 6.30D-14 1.00D-09 XBig12= 2.09D-15 5.21D-09.
      3 vectors produced by pass 12 Test12= 6.30D-14 1.00D-09 XBig12= 8.99D-16 2.04D-09.
      2 vectors produced by pass 13 Test12= 6.30D-14 1.00D-09 XBig12= 2.19D-16 1.43D-09.
 InvSVY:  IOpt=1 It=  1 EMax= 4.16D-16
 Solved reduced A of dimension   864 with   114 vectors.
 End of Minotr F.D. properties file   721 does not exist.
 End of Minotr F.D. properties file   722 does not exist.
 End of Minotr F.D. properties file   788 does not exist.

 **********************************************************************

            Population analysis using the SCF density.

 **********************************************************************

 Orbital symmetries:
       Occupied  (A) (A) (A) (A) (A) (A) (A) (A) (A) (A) (A) (A)
                 (A) (A) (A) (A) (A) (A) (A) (A) (A) (A) (A) (A)
                 (A) (A) (A) (A) (A) (A) (A) (A) (A) (A) (A) (A)
                 (A) (A) (A) (A) (A) (A) (A) (A) (A) (A) (A) (A)
                 (A) (A) (A) (A) (A) (A) (A) (A) (A) (A) (A) (A)
                 (A) (A) (A) (A) (A) (A) (A) (A) (A) (A) (A) (A)
                 (A) (A) (A) (A) (A) (A) (A) (A) (A) (A) (A) (A)
                 (A) (A) (A) (A) (A) (A) (A) (A) (A)
       Virtual   (A) (A) (A) (A) (A) (A) (A) (A) (A) (A) (A) (A)
                 (A) (A) (A) (A) (A) (A) (A) (A) (A) (A) (A) (A)
                 (A) (A) (A) (A) (A) (A) (A) (A) (A) (A) (A) (A)
                 (A) (A) (A) (A) (A) (A) (A) (A) (A) (A) (A) (A)
                 (A) (A) (A) (A) (A) (A) (A) (A) (A) (A) (A) (A)
                 (A) (A) (A) (A) (A) (A) (A) (A) (A) (A) (A) (A)
                 (A) (A) (A) (A) (A) (A) (A) (A) (A) (A) (A) (A)
                 (A) (A) (A) (A) (A) (A) (A) (A) (A) (A) (A) (A)
                 (A) (A) (A) (A) (A) (A) (A) (A) (A) (A) (A) (A)
                 (A) (A) (A) (A) (A) (A) (A) (A) (A) (A) (A) (A)
                 (A) (A) (A) (A) (A) (A) (A) (A) (A) (A) (A) (A)
                 (A) (A) (A) (A) (A) (A) (A) (A) (A) (A) (A) (A)
                 (A) (A) (A) (A) (A) (A) (A) (A) (A) (A) (A) (A)
                 (A) (A) (A) (A) (A) (A) (A) (A) (A) (A) (A) (A)
                 (A) (A) (A) (A) (A) (A) (A) (A) (A) (A) (A) (A)
                 (A) (A) (A) (A) (A) (A) (A) (A) (A) (A) (A) (A)
                 (A) (A) (A) (A) (A) (A) (A) (A) (A) (A) (A) (A)
                 (A) (A) (A) (A) (A) (A) (A) (A) (A) (A) (A) (A)
                 (A) (A) (A) (A) (A) (A) (A) (A) (A) (A) (A) (A)
                 (A) (A) (A) (A) (A) (A) (A) (A) (A) (A) (A) (A)
                 (A) (A) (A) (A) (A) (A) (A) (A) (A) (A) (A) (A)
                 (A) (A) (A) (A) (A) (A) (A) (A) (A) (A) (A) (A)
                 (A) (A) (A) (A) (A) (A) (A) (A) (A) (A) (A) (A)
                 (A) (A) (A) (A) (A) (A) (A) (A) (A) (A) (A) (A)
                 (A) (A) (A) (A) (A) (A) (A) (A) (A) (A) (A) (A)
                 (A) (A) (A) (A) (A) (A) (A) (A) (A) (A) (A) (A)
                 (A) (A) (A) (A) (A) (A) (A) (A) (A) (A) (A) (A)
                 (A) (A) (A) (A) (A) (A) (A) (A) (A) (A) (A) (A)
                 (A) (A) (A) (A) (A) (A) (A) (A) (A) (A) (A) (A)
                 (A) (A) (A) (A) (A) (A) (A) (A) (A) (A) (A) (A)
                 (A) (A) (A) (A) (A) (A) (A) (A) (A) (A) (A) (A)
                 (A) (A) (A) (A) (A) (A) (A) (A) (A) (A) (A) (A)
                 (A) (A) (A) (A) (A) (A) (A) (A) (A) (A) (A) (A)
                 (A) (A) (A) (A) (A) (A) (A) (A) (A) (A) (A) (A)
                 (A) (A) (A) (A) (A) (A) (A) (A) (A) (A) (A) (A)
                 (A) (A) (A) (A) (A) (A) (A) (A) (A) (A) (A) (A)
                 (A) (A) (A) (A) (A) (A) (A) (A) (A) (A) (A) (A)
                 (A) (A) (A) (A) (A) (A) (A) (A) (A) (A) (A) (A)
                 (A) (A) (A) (A) (A) (A) (A) (A) (A) (A) (A) (A)
                 (A) (A) (A) (A) (A) (A) (A) (A) (A) (A) (A) (A)
                 (A) (A) (A) (A) (A) (A) (A) (A) (A) (A) (A) (A)
                 (A) (A) (A) (A) (A) (A) (A) (A) (A) (A) (A) (A)
                 (A) (A) (A) (A) (A) (A) (A) (A) (A) (A) (A) (A)
                 (A) (A) (A) (A) (A) (A) (A) (A) (A) (A) (A) (A)
                 (A) (A) (A) (A) (A) (A) (A) (A) (A) (A) (A) (A)
                 (A) (A) (A) (A) (A) (A) (A) (A) (A) (A) (A) (A)
                 (A) (A) (A) (A) (A) (A) (A) (A) (A) (A) (A) (A)
                 (A) (A) (A) (A) (A) (A) (A) (A) (A) (A) (A) (A)
                 (A) (A) (A) (A) (A) (A) (A) (A) (A) (A) (A) (A)
                 (A) (A) (A) (A) (A) (A) (A) (A) (A) (A) (A) (A)
                 (A) (A) (A) (A) (A) (A) (A) (A) (A) (A) (A) (A)
                 (A) (A) (A) (A) (A) (A) (A) (A) (A) (A) (A) (A)
                 (A) (A) (A) (A) (A) (A) (A) (A) (A) (A) (A) (A)
                 (A) (A) (A) (A) (A) (A) (A) (A) (A) (A) (A) (A)
                 (A) (A) (A) (A) (A) (A) (A) (A) (A) (A) (A) (A)
                 (A) (A) (A) (A) (A) (A) (A) (A) (A) (A) (A) (A)
                 (A) (A) (A) (A) (A)
 The electronic state is 1-A.
 Alpha  occ. eigenvalues -- -483.13287-101.69598 -62.68095 -56.47214 -56.46865
 Alpha  occ. eigenvalues --  -56.46850 -19.21817 -14.48448 -14.46984 -10.41254
 Alpha  occ. eigenvalues --  -10.39939 -10.34070 -10.31938 -10.31785 -10.31775
 Alpha  occ. eigenvalues --  -10.30035 -10.29883 -10.29648 -10.29605 -10.29559
 Alpha  occ. eigenvalues --  -10.29163 -10.29018 -10.29011 -10.28402 -10.28397
 Alpha  occ. eigenvalues --   -9.58196  -8.82191  -7.32840  -7.31981  -7.31937
 Alpha  occ. eigenvalues --   -6.64337  -6.63221  -6.63175  -2.74726  -2.74409
 Alpha  occ. eigenvalues --   -2.74370  -2.73469  -2.73468  -1.14824  -1.04866
 Alpha  occ. eigenvalues --   -1.04250  -0.99158  -0.96120  -0.95683  -0.91714
 Alpha  occ. eigenvalues --   -0.87093  -0.85931  -0.85315  -0.85060  -0.81859
 Alpha  occ. eigenvalues --   -0.79056  -0.75908  -0.72514  -0.71409  -0.71178
 Alpha  occ. eigenvalues --   -0.67706  -0.65670  -0.63622  -0.63043  -0.60714
 Alpha  occ. eigenvalues --   -0.58782  -0.58139  -0.57709  -0.56136  -0.55763
 Alpha  occ. eigenvalues --   -0.54633  -0.53713  -0.52865  -0.52543  -0.51941
 Alpha  occ. eigenvalues --   -0.51572  -0.51442  -0.50514  -0.48655  -0.47903
 Alpha  occ. eigenvalues --   -0.47254  -0.46959  -0.45718  -0.44880  -0.43861
 Alpha  occ. eigenvalues --   -0.43211  -0.43040  -0.41014  -0.40623  -0.39704
 Alpha  occ. eigenvalues --   -0.39349  -0.38165  -0.34640  -0.34387  -0.33877
 Alpha  occ. eigenvalues --   -0.33609  -0.30733  -0.27728
 Alpha virt. eigenvalues --    0.01172   0.03664   0.04861   0.05258   0.05695
 Alpha virt. eigenvalues --    0.08053   0.10473   0.11100   0.12696   0.13799
 Alpha virt. eigenvalues --    0.13895   0.14521   0.14942   0.15914   0.17023
 Alpha virt. eigenvalues --    0.17191   0.17670   0.17888   0.18124   0.18623
 Alpha virt. eigenvalues --    0.19572   0.20692   0.20785   0.20926   0.21433
 Alpha virt. eigenvalues --    0.22338   0.22543   0.23086   0.23705   0.24548
 Alpha virt. eigenvalues --    0.24833   0.25669   0.26325   0.26604   0.27483
 Alpha virt. eigenvalues --    0.27663   0.28130   0.28612   0.29031   0.29296
 Alpha virt. eigenvalues --    0.29455   0.29984   0.30231   0.30893   0.31470
 Alpha virt. eigenvalues --    0.31706   0.32143   0.32566   0.32734   0.33033
 Alpha virt. eigenvalues --    0.33345   0.34103   0.34389   0.34760   0.35111
 Alpha virt. eigenvalues --    0.35391   0.36264   0.36898   0.37594   0.37834
 Alpha virt. eigenvalues --    0.38236   0.39029   0.39203   0.39979   0.40352
 Alpha virt. eigenvalues --    0.40884   0.41151   0.41835   0.41918   0.42277
 Alpha virt. eigenvalues --    0.42658   0.43536   0.44228   0.44402   0.45112
 Alpha virt. eigenvalues --    0.45361   0.45844   0.46062   0.46915   0.47020
 Alpha virt. eigenvalues --    0.47943   0.48191   0.48875   0.49222   0.49574
 Alpha virt. eigenvalues --    0.49941   0.50194   0.50374   0.50751   0.51188
 Alpha virt. eigenvalues --    0.51475   0.51763   0.52280   0.53070   0.53455
 Alpha virt. eigenvalues --    0.54283   0.54589   0.54849   0.55185   0.55554
 Alpha virt. eigenvalues --    0.56273   0.56742   0.57046   0.57203   0.57643
 Alpha virt. eigenvalues --    0.58158   0.58656   0.59344   0.59500   0.59990
 Alpha virt. eigenvalues --    0.61025   0.61327   0.61608   0.62412   0.63714
 Alpha virt. eigenvalues --    0.64143   0.64372   0.65187   0.65697   0.66814
 Alpha virt. eigenvalues --    0.67967   0.68604   0.69114   0.69972   0.70800
 Alpha virt. eigenvalues --    0.71079   0.71553   0.72716   0.73210   0.73838
 Alpha virt. eigenvalues --    0.74093   0.75261   0.75289   0.76416   0.76729
 Alpha virt. eigenvalues --    0.77142   0.77659   0.78342   0.78915   0.79581
 Alpha virt. eigenvalues --    0.79866   0.80042   0.80891   0.82264   0.82836
 Alpha virt. eigenvalues --    0.82980   0.83514   0.83804   0.84307   0.85543
 Alpha virt. eigenvalues --    0.86571   0.87203   0.88175   0.88634   0.89124
 Alpha virt. eigenvalues --    0.90060   0.90734   0.91535   0.91762   0.92524
 Alpha virt. eigenvalues --    0.93312   0.94361   0.95360   0.96200   0.96428
 Alpha virt. eigenvalues --    0.96977   0.97523   0.98465   0.98817   0.99678
 Alpha virt. eigenvalues --    1.00311   1.01112   1.01761   1.03489   1.03856
 Alpha virt. eigenvalues --    1.05723   1.05808   1.07504   1.08454   1.09119
 Alpha virt. eigenvalues --    1.09680   1.10277   1.10983   1.11756   1.11990
 Alpha virt. eigenvalues --    1.12889   1.14146   1.14353   1.15748   1.16102
 Alpha virt. eigenvalues --    1.17341   1.19046   1.19697   1.19853   1.20479
 Alpha virt. eigenvalues --    1.20937   1.22739   1.25162   1.26123   1.26537
 Alpha virt. eigenvalues --    1.27630   1.29013   1.29578   1.29874   1.30168
 Alpha virt. eigenvalues --    1.30659   1.31250   1.31574   1.31794   1.32117
 Alpha virt. eigenvalues --    1.32929   1.33729   1.33918   1.35308   1.36082
 Alpha virt. eigenvalues --    1.36715   1.37349   1.38032   1.39595   1.39964
 Alpha virt. eigenvalues --    1.41087   1.43125   1.43326   1.44895   1.46564
 Alpha virt. eigenvalues --    1.47866   1.47980   1.48639   1.49131   1.49892
 Alpha virt. eigenvalues --    1.50290   1.51485   1.52150   1.52972   1.53894
 Alpha virt. eigenvalues --    1.54305   1.55260   1.55431   1.55802   1.56646
 Alpha virt. eigenvalues --    1.57094   1.57970   1.58510   1.58804   1.59095
 Alpha virt. eigenvalues --    1.59557   1.60308   1.61361   1.62175   1.62613
 Alpha virt. eigenvalues --    1.63792   1.64625   1.64924   1.65949   1.66287
 Alpha virt. eigenvalues --    1.66738   1.67678   1.68797   1.69630   1.69854
 Alpha virt. eigenvalues --    1.70099   1.71027   1.71432   1.72259   1.72663
 Alpha virt. eigenvalues --    1.73439   1.74085   1.74865   1.75596   1.75961
 Alpha virt. eigenvalues --    1.76678   1.77212   1.77905   1.78319   1.78805
 Alpha virt. eigenvalues --    1.79647   1.80246   1.80788   1.81812   1.81977
 Alpha virt. eigenvalues --    1.82857   1.83336   1.84456   1.85749   1.86157
 Alpha virt. eigenvalues --    1.86490   1.87064   1.87871   1.88686   1.89922
 Alpha virt. eigenvalues --    1.91632   1.92296   1.93250   1.94101   1.94577
 Alpha virt. eigenvalues --    1.95158   1.95622   1.96360   1.97151   1.98230
 Alpha virt. eigenvalues --    1.98448   1.99554   1.99715   2.00543   2.02594
 Alpha virt. eigenvalues --    2.02918   2.03822   2.04344   2.05853   2.06506
 Alpha virt. eigenvalues --    2.07170   2.08506   2.09517   2.10605   2.12337
 Alpha virt. eigenvalues --    2.13289   2.13786   2.14530   2.15339   2.15465
 Alpha virt. eigenvalues --    2.16774   2.17279   2.17736   2.18416   2.19196
 Alpha virt. eigenvalues --    2.19660   2.21086   2.21499   2.23456   2.24260
 Alpha virt. eigenvalues --    2.24722   2.25705   2.26045   2.26970   2.27109
 Alpha virt. eigenvalues --    2.28176   2.29752   2.29915   2.30389   2.31180
 Alpha virt. eigenvalues --    2.31694   2.33020   2.33841   2.34638   2.35602
 Alpha virt. eigenvalues --    2.36940   2.38037   2.39122   2.39911   2.40984
 Alpha virt. eigenvalues --    2.41695   2.42819   2.44327   2.45431   2.46239
 Alpha virt. eigenvalues --    2.48461   2.50121   2.51849   2.52232   2.53739
 Alpha virt. eigenvalues --    2.55207   2.56101   2.56433   2.57361   2.58147
 Alpha virt. eigenvalues --    2.59865   2.60376   2.60820   2.61127   2.62171
 Alpha virt. eigenvalues --    2.62724   2.63325   2.64870   2.65594   2.66477
 Alpha virt. eigenvalues --    2.67636   2.68779   2.69403   2.70332   2.71141
 Alpha virt. eigenvalues --    2.71533   2.72481   2.73452   2.74217   2.74439
 Alpha virt. eigenvalues --    2.75149   2.75783   2.76329   2.76524   2.76968
 Alpha virt. eigenvalues --    2.77369   2.77753   2.78291   2.78752   2.80000
 Alpha virt. eigenvalues --    2.80396   2.81142   2.81659   2.83695   2.84743
 Alpha virt. eigenvalues --    2.85225   2.85389   2.86233   2.87026   2.87425
 Alpha virt. eigenvalues --    2.87632   2.88558   2.89239   2.90321   2.90488
 Alpha virt. eigenvalues --    2.91053   2.91598   2.92350   2.93088   2.93520
 Alpha virt. eigenvalues --    2.94446   2.94877   2.95335   2.95686   2.97193
 Alpha virt. eigenvalues --    2.97362   2.98059   2.98820   2.99514   3.00292
 Alpha virt. eigenvalues --    3.00773   3.02749   3.04225   3.05350   3.06373
 Alpha virt. eigenvalues --    3.08059   3.09414   3.10442   3.10838   3.11845
 Alpha virt. eigenvalues --    3.13124   3.14233   3.14831   3.15714   3.16285
 Alpha virt. eigenvalues --    3.16430   3.18390   3.18826   3.19683   3.20274
 Alpha virt. eigenvalues --    3.20717   3.21503   3.21784   3.22514   3.22921
 Alpha virt. eigenvalues --    3.23615   3.23927   3.24627   3.25031   3.25843
 Alpha virt. eigenvalues --    3.26375   3.27210   3.27692   3.28387   3.29496
 Alpha virt. eigenvalues --    3.29729   3.30990   3.32181   3.32501   3.33743
 Alpha virt. eigenvalues --    3.33973   3.34165   3.36121   3.36516   3.37144
 Alpha virt. eigenvalues --    3.38041   3.38471   3.39332   3.40374   3.40576
 Alpha virt. eigenvalues --    3.41533   3.42021   3.43185   3.43524   3.44428
 Alpha virt. eigenvalues --    3.44952   3.45211   3.46558   3.47046   3.47875
 Alpha virt. eigenvalues --    3.48207   3.48935   3.49654   3.50053   3.50299
 Alpha virt. eigenvalues --    3.51198   3.52266   3.54110   3.54584   3.55527
 Alpha virt. eigenvalues --    3.55760   3.56656   3.57427   3.58336   3.59211
 Alpha virt. eigenvalues --    3.59804   3.60365   3.60895   3.61455   3.61733
 Alpha virt. eigenvalues --    3.62567   3.62739   3.63773   3.65418   3.66224
 Alpha virt. eigenvalues --    3.67937   3.69148   3.71120   3.71817   3.73237
 Alpha virt. eigenvalues --    3.74319   3.76457   3.77465   3.77605   3.79084
 Alpha virt. eigenvalues --    3.80063   3.81253   3.83609   3.84666   3.85196
 Alpha virt. eigenvalues --    3.87150   3.87588   3.88923   3.90192   3.91109
 Alpha virt. eigenvalues --    3.93525   3.94385   3.98056   3.98484   3.99480
 Alpha virt. eigenvalues --    4.01934   4.03572   4.05245   4.07505   4.08198
 Alpha virt. eigenvalues --    4.09768   4.10314   4.12321   4.13204   4.13443
 Alpha virt. eigenvalues --    4.13788   4.16152   4.16995   4.18586   4.19992
 Alpha virt. eigenvalues --    4.21106   4.21854   4.22402   4.24184   4.25780
 Alpha virt. eigenvalues --    4.26534   4.26891   4.27951   4.28290   4.29611
 Alpha virt. eigenvalues --    4.29803   4.30282   4.31562   4.32242   4.32630
 Alpha virt. eigenvalues --    4.33238   4.34072   4.35714   4.35850   4.37173
 Alpha virt. eigenvalues --    4.37805   4.40392   4.41157   4.42400   4.42493
 Alpha virt. eigenvalues --    4.43960   4.46221   4.47079   4.47872   4.51184
 Alpha virt. eigenvalues --    4.52866   4.57349   4.58064   4.59715   4.61517
 Alpha virt. eigenvalues --    4.62699   4.66121   4.68417   4.69769   4.73567
 Alpha virt. eigenvalues --    4.74968   4.76563   4.77380   4.77882   4.79854
 Alpha virt. eigenvalues --    4.81299   4.81648   4.83420   4.86215   4.91509
 Alpha virt. eigenvalues --    4.93118   4.95802   4.96652   4.98357   4.98402
 Alpha virt. eigenvalues --    4.99137   4.99860   5.03637   5.03913   5.07957
 Alpha virt. eigenvalues --    5.08954   5.14174   5.15875   5.18557   5.20055
 Alpha virt. eigenvalues --    5.20361   5.22533   5.24530   5.26207   5.27039
 Alpha virt. eigenvalues --    5.28437   5.29970   5.32707   5.34158   5.37284
 Alpha virt. eigenvalues --    5.38525   5.40352   5.42172   5.43870   5.45769
 Alpha virt. eigenvalues --    5.48848   5.50765   5.53341   5.56947   5.62408
 Alpha virt. eigenvalues --    5.64675   5.68159   5.71521   5.73473   5.75450
 Alpha virt. eigenvalues --    5.79965   5.90659   6.00232   6.11835   6.19525
 Alpha virt. eigenvalues --    6.20773   6.45432   6.56863   6.74756   6.89334
 Alpha virt. eigenvalues --    6.94145   7.20846   7.30305   7.84308  10.91020
 Alpha virt. eigenvalues --   10.99647  11.47951  22.23056  22.23668  22.52645
 Alpha virt. eigenvalues --   22.61548  22.72087  22.73602  22.74005  22.77148
 Alpha virt. eigenvalues --   22.85957  22.87294  22.94355  22.94791  22.96847
 Alpha virt. eigenvalues --   23.36268  23.36921  23.54276  25.79688  32.18581
 Alpha virt. eigenvalues --   32.83710  44.18738
          Condensed to atoms (all electrons):
               1          2          3          4          5          6
     1  C    5.951210   0.232863  -0.137006   0.351986  -0.019976   0.026361
     2  C    0.232863   4.639867   0.519566  -0.084908  -0.004225  -0.008630
     3  O   -0.137006   0.519566   8.193383   0.033262   0.009782  -0.005287
     4  C    0.351986  -0.084908   0.033262   5.387322  -0.010438   0.010325
     5  C   -0.019976  -0.004225   0.009782  -0.010438   4.884400   0.413060
     6  H    0.026361  -0.008630  -0.005287   0.010325   0.413060   0.525904
     7  H   -0.002202   0.000986   0.000678   0.000056   0.408278  -0.022882
     8  H   -0.002302   0.000140   0.000331  -0.003748   0.416214  -0.026498
     9  N   -0.068869   0.018981  -0.008487  -0.094787   0.236721  -0.059012
    10  H    0.006281  -0.000180   0.000754   0.003318  -0.021305   0.005387
    11  H   -0.013317  -0.003558   0.014850   0.009073  -0.017872   0.000802
    12  C   -0.105643   0.017599   0.008444   0.122740   0.002979  -0.008269
    13  C    0.017995   0.003218   0.000042  -0.144887  -0.001633  -0.000266
    14  C    0.000201  -0.000457   0.000001   0.007446   0.000200   0.000008
    15  C    0.000344   0.000052  -0.000000  -0.004742  -0.000068   0.000025
    16  C    0.002089  -0.000100  -0.000000   0.004582   0.000422  -0.000317
    17  C   -0.007919  -0.000520   0.000014  -0.120907  -0.013400   0.001091
    18  H   -0.000933   0.000516   0.000036  -0.002282  -0.000053  -0.000021
    19  H   -0.000039  -0.000002   0.000000  -0.000366  -0.000000  -0.000000
    20  H    0.000010   0.000000   0.000000   0.000035  -0.000000   0.000000
    21  H   -0.000045   0.000000   0.000000  -0.000201  -0.000019  -0.000005
    22  H   -0.000991   0.000523   0.000042  -0.023644   0.003614  -0.002733
    23  Cl  -0.044544  -0.016181  -0.018364   0.317917   0.004479   0.001113
    24  Br   0.311949  -0.102653   0.004934  -0.098670  -0.000827  -0.003278
    25  N   -0.103586   0.419899  -0.092708   0.009824  -0.000614   0.000853
    26  C    0.008460  -0.038641  -0.010050  -0.001018   0.000060   0.000376
    27  C    0.002878  -0.025132  -0.005489   0.000176   0.000100  -0.000042
    28  C   -0.000439   0.000076  -0.002025  -0.000000   0.000011  -0.000022
    29  C    0.000084  -0.000257   0.000380   0.000000  -0.000000   0.000002
    30  C   -0.000215  -0.000285  -0.000245  -0.000004  -0.000000  -0.000004
    31  C   -0.001536   0.006541   0.003702   0.000152  -0.000003   0.000001
    32  H   -0.006144  -0.043112   0.003547   0.002283   0.000052   0.000161
    33  H    0.001895  -0.006042   0.026812  -0.000062   0.000067  -0.000007
    34  H   -0.000009  -0.000019  -0.000132   0.000000   0.000000  -0.000000
    35  H    0.000001   0.000001   0.000003  -0.000000  -0.000000   0.000000
    36  H   -0.000002   0.000018  -0.000001   0.000000   0.000000  -0.000000
    37  H    0.000139   0.000450   0.000028   0.000022  -0.000000   0.000002
               7          8          9         10         11         12
     1  C   -0.002202  -0.002302  -0.068869   0.006281  -0.013317  -0.105643
     2  C    0.000986   0.000140   0.018981  -0.000180  -0.003558   0.017599
     3  O    0.000678   0.000331  -0.008487   0.000754   0.014850   0.008444
     4  C    0.000056  -0.003748  -0.094787   0.003318   0.009073   0.122740
     5  C    0.408278   0.416214   0.236721  -0.021305  -0.017872   0.002979
     6  H   -0.022882  -0.026498  -0.059012   0.005387   0.000802  -0.008269
     7  H    0.499418  -0.014992  -0.018547  -0.000010  -0.010239  -0.000076
     8  H   -0.014992   0.497905  -0.025720  -0.008628   0.004209   0.002201
     9  N   -0.018547  -0.025720   6.653395   0.346050   0.346030   0.078582
    10  H   -0.000010  -0.008628   0.346050   0.399481  -0.017007  -0.007098
    11  H   -0.010239   0.004209   0.346030  -0.017007   0.399147   0.002184
    12  C   -0.000076   0.002201   0.078582  -0.007098   0.002184   5.513492
    13  C    0.000060  -0.000135   0.017198  -0.000293  -0.000781   0.239445
    14  C   -0.000002   0.000017  -0.001392   0.000066   0.000029   0.075957
    15  C    0.000000  -0.000026   0.000371  -0.000047  -0.000006  -0.127347
    16  C    0.000014   0.000770  -0.000112  -0.000342   0.000037   0.048546
    17  C    0.000665  -0.006982  -0.004507  -0.000459   0.000924   0.227367
    18  H    0.000001   0.000003   0.000950  -0.000063  -0.000028  -0.086397
    19  H    0.000000   0.000000   0.000001  -0.000000  -0.000000   0.015169
    20  H   -0.000000  -0.000000   0.000002  -0.000000  -0.000000  -0.004256
    21  H    0.000000   0.000028   0.000031   0.000010  -0.000001   0.015300
    22  H    0.000105   0.007261   0.005130  -0.003746   0.000310  -0.087043
    23  Cl  -0.000356  -0.000175  -0.073438   0.004585   0.003219  -0.084556
    24  Br   0.000234   0.000129   0.006251  -0.000259  -0.000090   0.023964
    25  N   -0.000021  -0.000038   0.000257   0.000021   0.000317   0.000704
    26  C   -0.000014  -0.000004  -0.000039  -0.000000  -0.000086  -0.000237
    27  C    0.000035   0.000004   0.000019  -0.000000  -0.000005   0.000026
    28  C    0.000006   0.000000   0.000003  -0.000000  -0.000006   0.000001
    29  C   -0.000000  -0.000000  -0.000000   0.000000   0.000001  -0.000000
    30  C    0.000000  -0.000000   0.000000  -0.000000  -0.000001   0.000000
    31  C   -0.000000   0.000000  -0.000003  -0.000000  -0.000002  -0.000009
    32  H   -0.000002   0.000000  -0.000130   0.000002  -0.000032  -0.000295
    33  H    0.000030   0.000002  -0.000021  -0.000001   0.000101  -0.000006
    34  H   -0.000000  -0.000000   0.000000   0.000000  -0.000000   0.000000
    35  H   -0.000000  -0.000000  -0.000000  -0.000000  -0.000000  -0.000000
    36  H    0.000000  -0.000000   0.000000   0.000000  -0.000000   0.000000
    37  H   -0.000000  -0.000000  -0.000000   0.000000   0.000000  -0.000002
              13         14         15         16         17         18
     1  C    0.017995   0.000201   0.000344   0.002089  -0.007919  -0.000933
     2  C    0.003218  -0.000457   0.000052  -0.000100  -0.000520   0.000516
     3  O    0.000042   0.000001  -0.000000  -0.000000   0.000014   0.000036
     4  C   -0.144887   0.007446  -0.004742   0.004582  -0.120907  -0.002282
     5  C   -0.001633   0.000200  -0.000068   0.000422  -0.013400  -0.000053
     6  H   -0.000266   0.000008   0.000025  -0.000317   0.001091  -0.000021
     7  H    0.000060  -0.000002   0.000000   0.000014   0.000665   0.000001
     8  H   -0.000135   0.000017  -0.000026   0.000770  -0.006982   0.000003
     9  N    0.017198  -0.001392   0.000371  -0.000112  -0.004507   0.000950
    10  H   -0.000293   0.000066  -0.000047  -0.000342  -0.000459  -0.000063
    11  H   -0.000781   0.000029  -0.000006   0.000037   0.000924  -0.000028
    12  C    0.239445   0.075957  -0.127347   0.048546   0.227367  -0.086397
    13  C    5.303464   0.353937   0.058753  -0.088382   0.088115   0.464349
    14  C    0.353937   5.030350   0.380845   0.039066  -0.111880  -0.046974
    15  C    0.058753   0.380845   5.007313   0.394516   0.057437   0.011919
    16  C   -0.088382   0.039066   0.394516   4.995369   0.389739  -0.005045
    17  C    0.088115  -0.111880   0.057437   0.389739   5.243947   0.016038
    18  H    0.464349  -0.046974   0.011919  -0.005045   0.016038   0.489854
    19  H   -0.060349   0.457221  -0.058435   0.011486  -0.004181  -0.006989
    20  H    0.012203  -0.058506   0.455076  -0.058283   0.012781  -0.000023
    21  H   -0.004107   0.011395  -0.057256   0.455236  -0.057543   0.000004
    22  H    0.009831  -0.003691   0.010263  -0.025016   0.452496   0.000171
    23  Cl   0.011159  -0.000357   0.000189  -0.000542   0.000984   0.014440
    24  Br  -0.013197   0.007265  -0.002023   0.006121  -0.021917  -0.000161
    25  N   -0.000020  -0.000000   0.000001  -0.000002   0.000046  -0.000007
    26  C    0.000005  -0.000001   0.000000  -0.000001   0.000014  -0.000000
    27  C    0.000001  -0.000000   0.000000  -0.000000   0.000001   0.000001
    28  C    0.000000  -0.000000  -0.000000   0.000000  -0.000000   0.000000
    29  C    0.000000  -0.000000   0.000000  -0.000000   0.000000  -0.000000
    30  C   -0.000000   0.000000  -0.000000   0.000000  -0.000000  -0.000000
    31  C   -0.000000   0.000000  -0.000000   0.000000   0.000000  -0.000000
    32  H    0.000017  -0.000003   0.000000  -0.000001   0.000015   0.000003
    33  H   -0.000000  -0.000000   0.000000  -0.000000   0.000000  -0.000000
    34  H    0.000000  -0.000000   0.000000   0.000000   0.000000   0.000000
    35  H    0.000000  -0.000000   0.000000  -0.000000   0.000000  -0.000000
    36  H   -0.000000  -0.000000   0.000000   0.000000  -0.000000   0.000000
    37  H    0.000000  -0.000000   0.000000  -0.000000   0.000000   0.000000
              19         20         21         22         23         24
     1  C   -0.000039   0.000010  -0.000045  -0.000991  -0.044544   0.311949
     2  C   -0.000002   0.000000   0.000000   0.000523  -0.016181  -0.102653
     3  O    0.000000   0.000000   0.000000   0.000042  -0.018364   0.004934
     4  C   -0.000366   0.000035  -0.000201  -0.023644   0.317917  -0.098670
     5  C   -0.000000  -0.000000  -0.000019   0.003614   0.004479  -0.000827
     6  H   -0.000000   0.000000  -0.000005  -0.002733   0.001113  -0.003278
     7  H    0.000000  -0.000000   0.000000   0.000105  -0.000356   0.000234
     8  H    0.000000  -0.000000   0.000028   0.007261  -0.000175   0.000129
     9  N    0.000001   0.000002   0.000031   0.005130  -0.073438   0.006251
    10  H   -0.000000  -0.000000   0.000010  -0.003746   0.004585  -0.000259
    11  H   -0.000000  -0.000000  -0.000001   0.000310   0.003219  -0.000090
    12  C    0.015169  -0.004256   0.015300  -0.087043  -0.084556   0.023964
    13  C   -0.060349   0.012203  -0.004107   0.009831   0.011159  -0.013197
    14  C    0.457221  -0.058506   0.011395  -0.003691  -0.000357   0.007265
    15  C   -0.058435   0.455076  -0.057256   0.010263   0.000189  -0.002023
    16  C    0.011486  -0.058283   0.455236  -0.025016  -0.000542   0.006121
    17  C   -0.004181   0.012781  -0.057543   0.452496   0.000984  -0.021917
    18  H   -0.006989  -0.000023   0.000004   0.000171   0.014440  -0.000161
    19  H    0.506107  -0.006729  -0.000051   0.000043  -0.000066   0.000046
    20  H   -0.006729   0.506175  -0.006577  -0.000087  -0.000000  -0.000019
    21  H   -0.000051  -0.006577   0.506151  -0.007646   0.000011   0.000031
    22  H    0.000043  -0.000087  -0.007646   0.538136   0.000162  -0.000464
    23  Cl  -0.000066  -0.000000   0.000011   0.000162  17.002885   0.005608
    24  Br   0.000046  -0.000019   0.000031  -0.000464   0.005608  34.987411
    25  N    0.000000   0.000000  -0.000000   0.000032  -0.001339  -0.005999
    26  C   -0.000000   0.000000  -0.000000  -0.000001  -0.000098   0.011247
    27  C   -0.000000   0.000000   0.000000  -0.000000  -0.000050  -0.000582
    28  C    0.000000   0.000000   0.000000   0.000000  -0.000006   0.000008
    29  C   -0.000000   0.000000  -0.000000  -0.000000   0.000000   0.000002
    30  C    0.000000  -0.000000   0.000000   0.000000  -0.000001  -0.000074
    31  C    0.000000  -0.000000   0.000000  -0.000000  -0.000001  -0.001350
    32  H   -0.000000  -0.000000   0.000000  -0.000004  -0.000001   0.011684
    33  H    0.000000   0.000000  -0.000000  -0.000000   0.000062  -0.000113
    34  H    0.000000   0.000000   0.000000   0.000000  -0.000000   0.000000
    35  H   -0.000000  -0.000000  -0.000000  -0.000000   0.000000   0.000000
    36  H    0.000000   0.000000   0.000000   0.000000  -0.000000  -0.000001
    37  H   -0.000000   0.000000  -0.000000   0.000000   0.000001   0.001002
              25         26         27         28         29         30
     1  C   -0.103586   0.008460   0.002878  -0.000439   0.000084  -0.000215
     2  C    0.419899  -0.038641  -0.025132   0.000076  -0.000257  -0.000285
     3  O   -0.092708  -0.010050  -0.005489  -0.002025   0.000380  -0.000245
     4  C    0.009824  -0.001018   0.000176  -0.000000   0.000000  -0.000004
     5  C   -0.000614   0.000060   0.000100   0.000011  -0.000000  -0.000000
     6  H    0.000853   0.000376  -0.000042  -0.000022   0.000002  -0.000004
     7  H   -0.000021  -0.000014   0.000035   0.000006  -0.000000   0.000000
     8  H   -0.000038  -0.000004   0.000004   0.000000  -0.000000  -0.000000
     9  N    0.000257  -0.000039   0.000019   0.000003  -0.000000   0.000000
    10  H    0.000021  -0.000000  -0.000000  -0.000000   0.000000  -0.000000
    11  H    0.000317  -0.000086  -0.000005  -0.000006   0.000001  -0.000001
    12  C    0.000704  -0.000237   0.000026   0.000001  -0.000000   0.000000
    13  C   -0.000020   0.000005   0.000001   0.000000   0.000000  -0.000000
    14  C   -0.000000  -0.000001  -0.000000  -0.000000  -0.000000   0.000000
    15  C    0.000001   0.000000   0.000000  -0.000000   0.000000  -0.000000
    16  C   -0.000002  -0.000001  -0.000000   0.000000  -0.000000   0.000000
    17  C    0.000046   0.000014   0.000001  -0.000000   0.000000  -0.000000
    18  H   -0.000007  -0.000000   0.000001   0.000000  -0.000000  -0.000000
    19  H    0.000000  -0.000000  -0.000000   0.000000  -0.000000   0.000000
    20  H    0.000000   0.000000   0.000000   0.000000   0.000000  -0.000000
    21  H   -0.000000  -0.000000   0.000000   0.000000  -0.000000   0.000000
    22  H    0.000032  -0.000001  -0.000000   0.000000  -0.000000   0.000000
    23  Cl  -0.001339  -0.000098  -0.000050  -0.000006   0.000000  -0.000001
    24  Br  -0.005999   0.011247  -0.000582   0.000008   0.000002  -0.000074
    25  N    6.445550   0.330408  -0.051278   0.003926   0.000414   0.003403
    26  C    0.330408   4.869419   0.360580   0.014704  -0.095041   0.016172
    27  C   -0.051278   0.360580   5.209344   0.398626   0.032224  -0.083930
    28  C    0.003926   0.014704   0.398626   4.987132   0.418050   0.010459
    29  C    0.000414  -0.095041   0.032224   0.418050   5.036232   0.410284
    30  C    0.003403   0.016172  -0.083930   0.010459   0.410284   4.945276
    31  C   -0.070046   0.365078   0.055856  -0.083077   0.031397   0.426665
    32  H    0.384470  -0.041008   0.007457  -0.000245   0.000024   0.000789
    33  H   -0.001634  -0.046205   0.431971  -0.035899   0.008353  -0.003121
    34  H   -0.000107   0.013676  -0.057837   0.451502  -0.056066   0.010962
    35  H   -0.000002  -0.005254   0.013457  -0.060148   0.457323  -0.059208
    36  H   -0.000093   0.014772  -0.005081   0.012018  -0.058425   0.457697
    37  H   -0.000393  -0.068673   0.009798  -0.003328   0.009467  -0.037434
              31         32         33         34         35         36
     1  C   -0.001536  -0.006144   0.001895  -0.000009   0.000001  -0.000002
     2  C    0.006541  -0.043112  -0.006042  -0.000019   0.000001   0.000018
     3  O    0.003702   0.003547   0.026812  -0.000132   0.000003  -0.000001
     4  C    0.000152   0.002283  -0.000062   0.000000  -0.000000   0.000000
     5  C   -0.000003   0.000052   0.000067   0.000000  -0.000000   0.000000
     6  H    0.000001   0.000161  -0.000007  -0.000000   0.000000  -0.000000
     7  H   -0.000000  -0.000002   0.000030  -0.000000  -0.000000   0.000000
     8  H    0.000000   0.000000   0.000002  -0.000000  -0.000000  -0.000000
     9  N   -0.000003  -0.000130  -0.000021   0.000000  -0.000000   0.000000
    10  H   -0.000000   0.000002  -0.000001   0.000000  -0.000000   0.000000
    11  H   -0.000002  -0.000032   0.000101  -0.000000  -0.000000  -0.000000
    12  C   -0.000009  -0.000295  -0.000006   0.000000  -0.000000   0.000000
    13  C   -0.000000   0.000017  -0.000000   0.000000   0.000000  -0.000000
    14  C    0.000000  -0.000003  -0.000000  -0.000000  -0.000000  -0.000000
    15  C   -0.000000   0.000000   0.000000   0.000000   0.000000   0.000000
[...]
 91,-0.00042736,0.00073099,0.00009560,0.00002294,-0.00003351,0.00009135
 ,0.00000269,0.00000891,0.00003350,-0.00001224,0.00000497,-0.00001961,0
 .00001216,-0.00000388,-0.00001856,0.00010298,-0.00030584,-0.00022292,-
 0.00001607,0.00000281,-0.00004402,-0.00012084,0.00012662,0.00004343,-0
 .00006130,-0.00004332,0.00001908,0.00004293,0.00001102,-0.00002727,-0.
 00000066,0.00000010,0.00001201,0.00001627,0.00000445,-0.00000766,0.000
 01044,0.00000787,-0.00000037,0.00001497,-0.00000527,0.00002349,-0.0000
 0677,-0.00000478,-0.00000617,0.00000699,0.00000603,0.00000288,0.000004
 52,0.00000197,0.00000010,0.00000691,0.00000517,-0.00000365,-0.00001329
 ,-0.00000616,0.00000535,0.00005902,-0.00011437,0.00003328,0.00017748,0
 .00025467,-0.00012829,-0.00101722,0.00282000,0.00038810,0.01352433,-0.
 01353256,-0.00226634,-0.14410547,0.13707833,0.02273785,-0.01142882,0.0
 2470190,0.00424420,-0.00450667,-0.00137268,-0.00052194,-0.00055635,-0.
 00088041,-0.00017688,-0.00110750,-0.00303521,-0.00075393,-0.00002732,0
 .00010414,0.00008332,0.15318072,0.00043202,0.00003687,-0.00007587,-0.0
 0145199,-0.00266293,-0.00028954,0.00505483,0.00116539,0.00059415,-0.00
 022402,0.00030564,0.00003520,0.00001289,-0.00001935,0.00005189,-0.0000
 0190,0.00000184,0.00001756,-0.00000880,0.00000382,-0.00000940,0.000006
 59,-0.00000232,-0.00001009,0.00010305,-0.00014901,-0.00011765,0.000000
 81,0.00000252,-0.00003276,-0.00008713,0.00009073,0.00004263,-0.0000384
 3,-0.00001369,0.00001111,0.00002116,0.00000490,-0.00001265,0.00000077,
 -0.00000054,0.00000545,0.00000871,0.00000253,-0.00000288,0.00000474,0.
 00000286,0.00000020,0.00000901,-0.00000360,0.00001053,-0.00000360,-0.0
 0000238,-0.00000374,0.00000362,0.00000315,0.00000150,0.00000224,0.0000
 0125,0.00000002,0.00000345,0.00000253,-0.00000192,-0.00000753,-0.00000
 262,0.00000289,0.00004806,-0.00006287,0.00003278,0.00007609,0.00018897
 ,-0.00007459,0.00009606,0.00140525,0.00099630,0.01781675,-0.01722921,-
 0.00353951,0.13206469,-0.26365855,-0.03763061,-0.00399221,0.00778785,0
 .00071613,-0.00150676,0.00168085,-0.00103430,-0.00109424,-0.00001184,0
 .00011719,-0.00339163,-0.00313161,-0.00169406,0.00007057,-0.00006183,0
 .00004585,-0.14496083,0.27438045,0.00017972,0.00006359,0.00047210,-0.0
 0019670,-0.00125030,-0.00026011,0.00082668,0.00056961,-0.00019902,-0.0
 0000714,0.00011412,0.00005524,0.00000319,-0.00000102,0.00003599,0.0000
 0685,0.00000736,0.00000640,-0.00000610,-0.00001098,-0.00000813,-0.0000
 0107,-0.00000019,-0.00000457,-0.00004709,-0.00004559,-0.00005465,-0.00
 000506,0.00001599,0.00000903,-0.00000846,0.00001784,0.00000717,-0.0000
 1271,-0.00001293,-0.00000671,0.00001167,0.00000276,-0.00000269,-0.0000
 0149,-0.00000196,0.00000214,0.00000354,0.00000080,-0.00000412,0.000004
 06,0.00000200,0.00000072,-0.00000061,0.00000030,0.00000327,-0.00000135
 ,0.00000023,-0.00000178,0.00000085,0.00000058,0.00000073,0.00000062,0.
 00000056,-0.00000013,0.00000141,0.00000096,-0.00000072,-0.00000122,-0.
 00000069,0.00000093,0.00004602,0.00001051,-0.00000370,0.00000278,0.000
 01248,0.00003755,-0.00018860,0.00115175,-0.00372070,0.00309632,-0.0041
 8361,0.00408470,0.02170681,-0.03664729,-0.04333663,-0.00079952,0.00098
 230,0.00302413,-0.00041225,-0.00094251,0.00752423,-0.00027568,0.000094
 08,-0.00083998,-0.00063088,-0.00181355,0.00601003,0.00003802,0.0000150
 8,-0.00030447,-0.02362151,0.04095120,0.03254829,-0.00029174,0.00011932
 ,-0.00002709,0.00067442,-0.00053820,-0.00005469,-0.00009413,0.00025566
 ,0.00003584,0.00010023,-0.00025147,-0.00002766,-0.00000509,0.00001464,
 -0.00002325,0.00000035,-0.00000550,-0.00001013,0.00000276,-0.00000191,
 0.00000799,-0.00000211,0.00000058,0.00000418,-0.00003331,0.00009844,0.
 00007454,0.00000750,0.00000582,0.00001495,0.00001396,-0.00002124,-0.00
 000541,0.00001200,0.00001943,-0.00000667,-0.00001229,-0.00000026,0.000
 00881,-0.00000028,-0.00000073,-0.00000295,-0.00000477,-0.00000186,0.00
 000126,-0.00000143,-0.00000169,0.00000056,-0.00000584,0.00000296,-0.00
 000752,0.00000192,0.00000109,0.00000151,-0.00000199,-0.00000178,-0.000
 00088,-0.00000129,-0.00000057,-0.00000004,-0.00000201,-0.00000150,0.00
 000111,0.00000353,0.00000140,-0.00000143,-0.00001051,0.00004189,-0.000
 01294,-0.00006078,-0.00001206,0.00002808,-0.00075647,-0.00150652,-0.00
 026125,-0.00500889,0.00066848,-0.00007617,-0.00936664,-0.02880911,-0.0
 0549938,-0.11271517,-0.10737309,-0.02052836,0.01188752,0.01684893,0.00
 315536,-0.00118726,0.00346193,0.00046124,-0.00106537,0.00068370,0.0001
 2688,-0.00039507,0.00007001,-0.00002704,0.00118533,0.00039341,0.000178
 33,0.11581274,-0.00025186,0.00007725,-0.00002317,0.00046614,-0.0003443
 4,-0.00005408,-0.00014715,0.00013686,0.00000551,0.00009507,-0.00020628
 ,-0.00002928,-0.00000469,0.00001348,-0.00001837,0.00000030,-0.00000482
 ,-0.00000801,0.00000211,-0.00000236,0.00000624,-0.00000186,0.00000026,
 0.00000332,-0.00002716,0.00008159,0.00006205,0.00000669,0.00000543,0.0
 0001225,0.00001024,-0.00001558,-0.00000349,0.00001139,0.00001303,-0.00
 000350,-0.00000972,-0.00000148,0.00000636,0.,0.00000014,-0.00000265,-0
 .00000363,-0.00000114,0.00000163,-0.00000195,-0.00000199,0.00000020,-0
 .00000367,0.00000226,-0.00000541,0.00000157,0.00000080,0.00000128,-0.0
 0000152,-0.00000138,-0.00000067,-0.00000099,-0.00000047,-0.00000002,-0
 .00000156,-0.00000117,0.00000086,0.00000284,0.00000122,-0.00000106,-0.
 00000826,0.00003363,-0.00000982,-0.00002097,-0.00001387,0.00001548,-0.
 00053543,0.00012528,-0.00002413,0.00090618,0.00210079,-0.00101521,0.00
 164711,0.00206960,-0.00020338,-0.10768975,-0.28042084,-0.04517868,-0.0
 1405907,-0.01724134,-0.00404890,0.00405320,-0.00256352,-0.00174051,0.0
 0063831,0.00033212,0.00026769,0.00001584,0.00005652,0.00003346,-0.0002
 3198,0.00058677,0.00090359,0.11576127,0.29542373,-0.00007041,0.0000176
 8,-0.00001216,0.00011305,-0.00007592,0.00000173,-0.00006489,0.00001544
 ,0.00007273,0.00002658,-0.00005453,-0.00000160,-0.00000082,0.00000243,
 -0.00000589,-0.00000018,-0.00000071,-0.00000152,0.00000062,-0.00000045
 ,0.00000143,-0.00000066,0.00000010,0.00000082,-0.00000778,0.00002139,0
 .00001448,0.00000150,0.00000078,0.00000303,0.00000281,-0.00000510,0.00
 000012,0.00000387,0.00000284,-0.00000100,-0.00000294,-0.00000010,0.000
 00174,0.00000012,0.,-0.00000084,-0.00000098,-0.00000021,0.00000039,-0.
 00000057,-0.00000032,-0.00000004,-0.00000089,0.00000030,-0.00000106,0.
 00000045,0.00000018,0.00000026,-0.00000043,-0.00000044,-0.00000018,-0.
 00000024,-0.00000015,0.,-0.00000031,-0.00000035,0.00000020,0.00000081,
 0.00000030,-0.00000034,-0.00000287,0.00001059,-0.00000419,0.00000007,-
 0.00000462,0.00000122,-0.00017218,-0.00009106,0.00008268,-0.00002583,-
 0.00095727,0.00764835,0.00000031,-0.00075827,0.00352122,-0.02049521,-0
 .04516899,-0.04761415,-0.00242641,-0.00344892,0.00336735,0.00057148,-0
 .00177121,0.00715212,0.00010669,0.00030392,-0.00102651,-0.00002302,0.0
 0004114,-0.00014698,0.00011955,0.00087288,-0.00435621,0.02234372,0.050
 18448,0.03624250,-0.00022294,0.00006620,-0.00002474,0.00039577,-0.0001
 3244,-0.00001871,-0.00031895,0.00005501,-0.00000921,0.00008190,-0.0001
 8191,-0.00002291,-0.00000405,0.00001119,-0.00001807,0.00000036,-0.0000
 0367,-0.00000737,0.00000240,-0.00000196,0.00000521,-0.00000207,0.00000
 034,0.00000326,-0.00002596,0.00007243,0.00005528,0.00000519,0.00000338
 ,0.00001109,0.00001451,-0.00001807,-0.00000542,0.00001108,0.00001268,-
 0.00000384,-0.00000937,-0.00000127,0.00000609,-0.00000005,-0.00000008,
 -0.00000239,-0.00000357,-0.00000116,0.00000142,-0.00000179,-0.00000168
 ,0.00000014,-0.00000372,0.00000177,-0.00000511,0.00000152,0.00000084,0
 .00000129,-0.00000148,-0.00000132,-0.00000067,-0.00000099,-0.00000046,
 -0.00000002,-0.00000150,-0.00000111,0.00000084,0.00000281,0.00000122,-
 0.00000111,-0.00000976,0.00002946,-0.00000961,-0.00002539,-0.00002056,
 0.00001710,-0.00038788,0.00011758,0.00001824,0.00084858,0.00020150,0.0
 0005950,0.00018600,0.00325908,0.00047613,-0.01244850,-0.00430418,-0.00
 101028,-0.34260556,-0.01786336,-0.00833983,-0.00901519,0.00221425,0.00
 021539,0.00092499,-0.00248286,-0.00054801,0.00003857,0.00000555,-0.000
 00697,-0.00055560,-0.00031729,-0.00005886,0.00082626,0.00017914,0.0001
 1850,0.36217150,0.00001826,0.00001617,-0.00001888,-0.00002276,-0.00025
 031,0.00000098,0.00025315,0.00015561,0.00005493,-0.00001573,0.00001277
 ,-0.00000079,0.00000067,-0.00000071,0.00000261,-0.00000009,-0.00000005
 ,0.00000068,-0.00000034,0.00000029,-0.00000025,0.00000038,-0.00000011,
 -0.00000054,0.00000620,-0.00000716,-0.00000505,0.00000038,0.00000014,-
 0.00000203,-0.00000550,0.00000542,0.00000266,-0.00000281,0.00000063,0.
 00000128,0.00000097,0.00000044,-0.00000065,0.00000015,-0.00000007,0.00
 000037,0.00000033,0.00000012,-0.00000011,0.00000031,-0.00000006,0.0000
 0001,0.00000029,-0.00000002,0.00000041,-0.00000019,-0.00000018,-0.0000
 0017,0.00000018,0.00000019,0.00000005,0.00000010,0.00000006,0.,0.00000
 013,0.00000015,-0.00000007,-0.00000037,-0.00000014,0.00000016,0.000001
 74,-0.00000431,0.00000221,0.00000568,0.00001431,-0.00000621,-0.0001894
 1,0.00037495,0.00025389,0.00013356,-0.00148057,-0.00016730,0.00244855,
 -0.00377868,-0.00192103,0.02697981,0.00625677,0.00111352,-0.01787949,-
 0.06039785,-0.00475756,-0.02892161,0.00301852,-0.00034741,-0.00179857,
 -0.00421981,-0.00207851,0.00013454,-0.00003996,-0.00001090,0.00105082,
 0.00026650,-0.00001168,-0.00066218,0.00086533,0.00089638,0.01924169,0.
 05827409,0.00002725,-0.00000023,0.00011049,-0.00001592,-0.00010152,-0.
 00011671,0.00011751,0.00005034,-0.00006527,0.00000482,0.00001253,0.000
 01859,0.00000009,-0.00000158,0.00000333,0.00000070,0.00000137,0.000000
 73,-0.00000110,-0.00000077,-0.00000063,-0.00000014,0.00000018,-0.00000
 027,-0.00001305,-0.00000637,-0.00000885,-0.00000166,0.00000340,0.00000
 401,0.00000174,-0.00000214,-0.00000102,-0.00000101,-0.00000250,-0.0000
 0494,0.00000158,0.00000020,0.00000009,-0.00000058,-0.00000077,0.000000
 15,0.00000060,0.00000017,-0.00000096,0.00000063,0.00000088,0.00000028,
 0.00000011,-0.00000075,0.00000041,-0.00000006,0.00000024,-0.00000027,0
 .00000004,-0.00000006,0.00000008,0.00000006,0.00000007,-0.00000001,0.0
 0000025,0.00000004,-0.00000009,-0.00000014,-0.00000002,0.00000006,0.00
 000585,0.00000833,-0.00000404,0.00000224,-0.00000507,0.00001065,-0.000
 03015,0.00023729,-0.00100626,0.00000391,-0.00015182,-0.00062430,0.0003
 9511,-0.00190243,0.00688631,0.00450739,0.00068505,0.00268884,-0.008288
 30,-0.00481108,-0.03632914,-0.00539405,0.00018270,0.00221470,-0.000443
 41,-0.00212655,0.00684081,0.00003439,0.00000073,0.00000727,0.00013210,
 0.00001099,0.00031703,-0.00002934,0.00091463,-0.00404757,0.00906524,0.
 00617528,0.02672145,-0.00037026,0.00022839,-0.00004821,0.00026196,-0.0
 0088065,-0.00006690,-0.00001169,0.00029680,0.00004188,0.00008444,-0.00
 029497,-0.00002341,-0.00000580,0.00001750,-0.00002408,0.00000066,-0.00
 000630,-0.00001141,0.00000282,-0.00000276,0.00000816,-0.00000264,0.000
 00061,0.00000439,-0.00003386,0.00010460,0.00008034,0.00000885,0.000006
 75,0.00001561,0.00001305,-0.00001990,-0.00000421,0.00001148,0.00002753
 ,-0.00000813,-0.00001434,-0.00000203,0.00000998,0.00000004,-0.00000115
 ,-0.00000356,-0.00000554,-0.00000190,0.00000196,-0.00000233,-0.0000032
 2,0.00000052,-0.00000595,0.00000196,-0.00000821,0.00000205,0.00000169,
 0.00000147,-0.00000243,-0.00000192,-0.00000105,-0.00000153,-0.00000049
 ,-0.00000005,-0.00000236,-0.00000158,0.00000123,0.00000380,0.00000211,
 -0.00000145,-0.00000846,0.00004480,-0.00001357,-0.00002936,-0.00001597
 ,0.00002103,-0.00136319,0.00182782,0.00024836,-0.00433996,-0.00166668,
 -0.00052825,-0.00082231,-0.00078684,-0.00012762,-0.00026956,-0.0030890
 5,-0.00069372,0.01193793,-0.01285674,-0.00214897,-0.14447904,0.1269177
 9,0.02084572,-0.01235649,0.02743604,0.00464672,0.00010211,0.00008448,-
 0.00000401,0.00008072,0.00010154,0.00003157,0.00040366,-0.00066154,-0.
 00011152,0.00074205,0.00062159,0.00019239,0.14938867,0.00019034,-0.000
 05090,0.00002107,-0.00045931,0.00032788,0.00007063,0.00009982,-0.00015
 702,-0.00002845,-0.00008060,0.00015866,0.00002283,0.00000344,-0.000010
 45,0.00001459,-0.00000030,0.00000353,0.00000610,-0.00000177,0.00000205
 ,-0.00000465,0.00000162,-0.00000018,-0.00000257,0.00002307,-0.00006388
 ,-0.00004780,-0.00000536,-0.00000466,-0.00001005,-0.00000838,0.0000122
 4,0.00000245,-0.00000962,-0.00000911,0.00000171,0.00000758,0.00000100,
 -0.00000494,-0.00000005,-0.00000015,0.00000207,0.00000278,0.00000089,-
 0.00000132,0.00000160,0.00000149,-0.00000008,0.00000289,-0.00000171,0.
 00000412,-0.00000123,-0.00000064,-0.00000102,0.00000119,0.00000105,0.0
 0000054,0.00000079,0.00000037,0.00000001,0.00000118,0.00000090,-0.0000
 0066,-0.00000228,-0.00000101,0.00000092,0.00000683,-0.00002655,0.00000
 779,0.00001550,0.00001035,-0.00001223,0.00052590,-0.00002785,-0.000021
 68,-0.00167277,0.00177363,-0.00113056,-0.00073057,0.00010718,0.0002076
 0,-0.00373883,-0.00336313,-0.00199981,0.01780474,-0.01674250,-0.003355
 70,0.12762595,-0.25238336,-0.03597255,-0.00345562,0.00510180,0.0002185
 4,-0.00001539,-0.00003068,-0.00000612,0.00007967,-0.00001168,0.0001782
 4,0.00084584,-0.00102373,-0.00017205,-0.00023844,0.00094989,0.00088988
 ,-0.13714004,0.26483319,0.00002406,-0.00000475,-0.00002069,-0.00007346
 ,0.00002384,-0.00013204,0.00002261,-0.00001490,0.00005775,-0.00001052,
 0.00002115,0.00000599,0.00000050,-0.00000150,0.00000192,0.00000004,0.0
 0000073,0.00000101,-0.00000004,0.00000009,-0.00000083,0.00000019,-0.00
 000005,-0.00000039,0.00000043,-0.00000780,-0.00000664,-0.00000074,-0.0
 0000037,-0.00000082,-0.00000108,0.00000104,0.00000053,-0.00000121,0.00
 000067,0.00000286,0.00000098,-0.00000005,-0.00000063,0.00000038,0.0000
 0016,0.00000019,0.00000022,0.00000010,0.00000010,0.00000001,0.00000002
 ,-0.00000015,0.00000016,-0.00000040,0.00000050,-0.00000021,-0.00000002
 ,-0.00000023,0.00000010,0.00000015,0.00000004,0.00000012,0.00000005,0.
 00000001,0.00000020,0.00000005,-0.00000011,-0.00000031,-0.00000014,0.0
 0000005,0.00000197,-0.00000424,0.00000156,-0.00000053,-0.00000152,0.00
 000028,0.00004421,-0.00000366,0.00019659,-0.00053265,-0.00114312,0.007
 76981,-0.00009592,0.00021845,-0.00105495,-0.00080686,-0.00197334,0.007
 01663,0.00333081,-0.00387005,0.00315214,0.02096630,-0.03601001,-0.0448
 1245,-0.00089266,0.00075171,0.00363710,-0.00000432,0.00000880,-0.00001
 681,0.00004905,0.00018157,-0.00101628,0.00015843,-0.00019491,-0.000017
 33,0.00003407,0.00089929,-0.00386991,-0.02237671,0.04020830,0.03344014
 ,0.00023766,-0.00012194,0.00002984,-0.00029267,0.00048195,0.00006775,-
 0.00005198,-0.00026585,-0.00004720,-0.00007642,0.00020888,0.00001907,0
 .00000394,-0.00001348,0.00001766,0.00000060,0.00000486,0.00000720,-0.0
 0000197,0.00000167,-0.00000659,0.00000178,-0.00000035,-0.00000316,0.00
 002537,-0.00008131,-0.00006162,-0.00000740,-0.00000564,-0.00001140,-0.
 00000606,0.00001221,0.00000100,-0.00000938,-0.00001666,0.00000575,0.00
 001044,0.00000042,-0.00000761,0.00000038,0.00000034,0.00000246,0.00000
 396,0.00000161,-0.00000103,0.00000132,0.00000127,-0.00000036,0.0000049
 2,-0.00000259,0.00000620,-0.00000152,-0.00000091,-0.00000119,0.0000016
 9,0.00000145,0.00000075,0.00000112,0.00000047,0.00000003,0.00000168,0.
 00000119,-0.00000095,-0.00000284,-0.00000109,0.00000121,0.00000706,-0.
 00003543,0.00001034,0.00004766,-0.00001191,-0.00001557,0.00236574,0.00
 169634,0.00033173,0.00863990,0.01556444,0.00287364,-0.00131551,0.00304
 677,0.00044805,-0.00107272,0.00064460,0.00009543,-0.00546289,0.0007842
 5,-0.00009116,-0.00879126,-0.02976211,-0.00550896,-0.11195574,-0.10643
 438,-0.02028286,-0.00136230,-0.00023334,0.00008094,0.00040882,0.000755
 31,0.00013785,0.00009027,-0.00013464,-0.00000199,-0.00060915,-0.001400
 38,-0.00027507,0.00108281,0.00031982,0.00016239,0.11808266,-0.00000594
 ,-0.00004165,-0.00002315,0.00044438,-0.00005074,0.00019969,0.00006749,
 0.00044723,0.00000519,0.00002226,-0.00002739,-0.00002010,-0.00000020,0
 .00000211,-0.00000254,-0.00000060,-0.00000139,-0.00000097,0.00000020,0
 .00000035,0.00000166,-0.00000001,-0.00000016,0.00000041,-0.00000337,0.
 00001187,0.00001048,0.00000157,0.00000038,0.00000079,0.00000017,-0.000
 00038,-0.00000005,-0.00000210,0.00000332,0.00000439,0.00000005,0.00000
 154,0.00000084,-0.00000006,0.00000040,0.00000042,-0.00000065,-0.000000
 35,-0.00000006,0.00000032,0.00000018,0.00000009,-0.00000157,0.00000216
 ,-0.00000191,0.00000043,-0.00000058,0.00000038,0.,-0.00000016,-0.00000
 015,-0.00000016,-0.00000024,0.00000001,-0.00000025,-0.00000024,0.00000
 024,0.00000051,-0.00000032,-0.00000021,-0.00000215,0.00000364,-0.00000
 106,-0.00000920,0.00000958,-0.00000007,-0.00203354,0.00150190,0.000795
 38,-0.01483704,-0.01759762,-0.00418766,0.00406659,-0.00268645,-0.00138
 530,0.00097392,0.00020493,0.00020688,0.00011557,0.00216019,-0.00097661
 ,0.00139415,0.00231657,-0.00006196,-0.10575081,-0.27822738,-0.04545142
 ,0.00173766,-0.00024387,-0.00026327,-0.00087692,-0.00089664,-0.0001736
 2,-0.00010512,-0.00008178,0.00013984,0.00009853,-0.00003239,-0.0000606
 2,-0.00028823,0.00062307,0.00091468,0.11499416,0.29260028,0.00001855,-
 0.00002844,0.00011771,0.00005326,0.00016682,-0.00078457,-0.00004693,0.
 00002192,0.00018958,-0.00000454,0.00002427,0.00005134,-0.00000047,-0.0
 0000339,0.00000344,0.00000034,0.00000173,0.00000157,-0.00000070,-0.000
 00011,-0.00000136,0.,0.00000019,-0.00000045,-0.00000428,-0.00001037,-0
 .00001168,-0.00000319,0.00000094,0.00000143,0.00000452,-0.00000139,-0.
 00000170,0.00000368,-0.00000765,-0.00001757,-0.00000052,0.00000164,0.0
 0000079,-0.00000124,-0.00000195,-0.00000015,0.00000071,0.00000059,-0.0
 0000185,0.00000135,0.00000209,0.00000017,0.00000075,-0.00000166,0.0000
 0170,-0.00000025,0.00000049,-0.00000037,-0.00000006,-0.00000023,0.0000
 0011,0.00000013,0.00000002,0.00000001,0.00000043,0.00000008,-0.0000001
 6,0.00000011,-0.00000052,-0.00000018,0.00000068,0.00001490,-0.00000918
 ,0.00004571,0.00002019,-0.00000739,-0.00037561,0.00064823,-0.00304372,
 -0.00244955,-0.00355898,0.00376682,0.00054864,-0.00133764,0.00521742,0
 .00020747,0.00018351,-0.00081290,-0.00020411,-0.00093740,0.00745641,0.
 00000870,-0.00063352,0.00283398,-0.02028349,-0.04552043,-0.04412235,0.
 00050187,-0.00019031,0.00026750,-0.00009679,-0.00016844,-0.00001908,-0
 .00000062,0.00014623,-0.00087477,0.00000432,-0.00007561,0.00025498,0.0
 0005370,0.00091488,-0.00433494,0.02201744,0.05032934,0.03387940\\0.000
 00022,-0.00000021,0.00000002,-0.00000009,0.00000087,0.00000009,-0.0000
 0064,0.00000067,0.00000078,-0.00000069,-0.00000023,0.00000012,-0.00000
 058,-0.00000146,0.00000077,-0.00000004,-0.00000121,0.00000024,-0.00000
 080,-0.00000136,0.00000101,-0.00000023,-0.00000243,0.00000077,-0.00000
 066,-0.00000122,0.00000109,-0.00000107,-0.00000141,0.00000129,-0.00000
 087,-0.00000044,0.00000116,0.00000009,-0.00000118,-0.00000017,0.000000
 32,-0.00000062,0.00000011,0.00000017,-0.00000141,0.00000001,0.00000052
 ,-0.00000224,-0.00000050,0.00000051,-0.00000242,0.00000016,0.00000004,
 -0.00000222,0.00000035,-0.00000004,-0.00000008,0.00000007,0.00000041,-
 0.00000109,-0.00000027,0.00000066,-0.00000264,-0.00000031,0.00000045,-
 0.00000319,0.00000003,-0.00000023,-0.00000182,0.00000056,-0.00000094,0
 .00000021,0.00000091,0.00000094,-0.00000042,-0.00000095,0.00000020,0.0
 0000085,-0.00000048,0.00000036,0.00000150,-0.00000043,-0.00000050,0.00
 000169,0.00000005,-0.00000038,0.00000255,0.00000002,0.00000009,0.00000
 279,-0.00000059,0.00000073,0.00000263,-0.00000114,0.00000068,0.0000020
 9,-0.00000105,0.00000068,0.00000099,-0.00000092,-0.00000073,0.00000160
 ,0.00000037,-0.00000076,0.00000252,0.00000043,0.00000009,0.00000331,-0
 .00000062,0.00000103,0.00000302,-0.00000157,0.00000106,0.00000198,-0.0
 0000142\\\@


 KNOWLEDGE IS EXPERIMENT'S DAUGHTER.
 -- LEONARDO DA VINCI, IN "PENSIERI" CA. 1492
 Job cpu time:       1 days 13 hours 30 minutes 42.8 seconds.
 Elapsed time:       0 days  2 hours 20 minutes 45.9 seconds.
 File lengths (MBytes):  RWF=   2155 Int=      0 D2E=      0 Chk=     64 Scr=      1
 Normal termination of Gaussian 16 at Sun Feb  7 21:54:19 2021.
