 Entering Gaussian System, Link 0=g16
 Initial command:
 /apps/skylake/gaussian/16/A.03/g16/l1.exe "/beegfs/scratch/user/q/tla25/Gau-169789.inp" -scrdir="/beegfs/scratch/user/q/tla25/"
 Entering Link 1 = /apps/skylake/gaussian/16/A.03/g16/l1.exe PID=    169790.
  
 Copyright (c) 1988,1990,1992,1993,1995,1998,2003,2009,2016,
            Gaussian, Inc.  All Rights Reserved.
  
 This is part of the Gaussian(R) 16 program.  It is based on
 the Gaussian(R) 09 system (copyright 2009, Gaussian, Inc.),
 the Gaussian(R) 03 system (copyright 2003, Gaussian, Inc.),
 the Gaussian(R) 98 system (copyright 1998, Gaussian, Inc.),
 the Gaussian(R) 94 system (copyright 1995, Gaussian, Inc.),
 the Gaussian 92(TM) system (copyright 1992, Gaussian, Inc.),
 the Gaussian 90(TM) system (copyright 1990, Gaussian, Inc.),
 the Gaussian 88(TM) system (copyright 1988, Gaussian, Inc.),
 the Gaussian 86(TM) system (copyright 1986, Carnegie Mellon
 University), and the Gaussian 82(TM) system (copyright 1983,
 Carnegie Mellon University). Gaussian is a federally registered
 trademark of Gaussian, Inc.
  
 This software contains proprietary and confidential information,
 including trade secrets, belonging to Gaussian, Inc.
  
 This software is provided under written license and may be
 used, copied, transmitted, or stored only in accord with that
 written license.
  
 The following legend is applicable only to US Government
 contracts under FAR:
  
                    RESTRICTED RIGHTS LEGEND
  
 Use, reproduction and disclosure by the US Government is
 subject to restrictions as set forth in subparagraphs (a)
 and (c) of the Commercial Computer Software - Restricted
 Rights clause in FAR 52.227-19.
  
 Gaussian, Inc.
 340 Quinnipiac St., Bldg. 40, Wallingford CT 06492
  
  
 ---------------------------------------------------------------
 Warning -- This program may not be used in any manner that
 competes with the business of Gaussian, Inc. or will provide
 assistance to any competitor of Gaussian, Inc.  The licensee
 of this program is prohibited from giving any competitor of
 Gaussian, Inc. access to this program.  By using this program,
 the user acknowledges that Gaussian, Inc. is engaged in the
 business of creating and licensing software in the field of
 computational chemistry and represents and warrants to the
 licensee that it is not a competitor of Gaussian, Inc. and that
 it will not use this program in any manner prohibited above.
 ---------------------------------------------------------------
  

 Cite this work as:
 Gaussian 16, Revision A.03,
 M. J. Frisch, G. W. Trucks, H. B. Schlegel, G. E. Scuseria, 
 M. A. Robb, J. R. Cheeseman, G. Scalmani, V. Barone, 
 G. A. Petersson, H. Nakatsuji, X. Li, M. Caricato, A. V. Marenich, 
 J. Bloino, B. G. Janesko, R. Gomperts, B. Mennucci, H. P. Hratchian, 
 J. V. Ortiz, A. F. Izmaylov, J. L. Sonnenberg, D. Williams-Young, 
 F. Ding, F. Lipparini, F. Egidi, J. Goings, B. Peng, A. Petrone, 
 T. Henderson, D. Ranasinghe, V. G. Zakrzewski, J. Gao, N. Rega, 
 G. Zheng, W. Liang, M. Hada, M. Ehara, K. Toyota, R. Fukuda, 
 J. Hasegawa, M. Ishida, T. Nakajima, Y. Honda, O. Kitao, H. Nakai, 
 T. Vreven, K. Throssell, J. A. Montgomery, Jr., J. E. Peralta, 
 F. Ogliaro, M. J. Bearpark, J. J. Heyd, E. N. Brothers, K. N. Kudin, 
 V. N. Staroverov, T. A. Keith, R. Kobayashi, J. Normand, 
 K. Raghavachari, A. P. Rendell, J. C. Burant, S. S. Iyengar, 
 J. Tomasi, M. Cossi, J. M. Millam, M. Klene, C. Adamo, R. Cammi, 
 J. W. Ochterski, R. L. Martin, K. Morokuma, O. Farkas, 
 J. B. Foresman, and D. J. Fox, Gaussian, Inc., Wallingford CT, 2016.
 
 ******************************************
 Gaussian 16:  ES64L-G16RevA.03 25-Dec-2016
                10-Apr-2021 
 ******************************************
 %nprocshared=24
 Will use up to   24 processors via shared memory.
 %mem=140GB
 ----------------------------------------------------------------------
 # wB97XD def2tzvp, opt=(ts, noeigen, calcfc, maxcycles=70, maxstep=3),
  freq=noraman, scrf=(iefpcm, solvent=water)
 ----------------------------------------------------------------------
 1/5=1,6=70,8=3,10=4,11=1,18=20,26=3,38=1/1,3;
 2/9=110,12=2,17=6,18=5,40=1/2;
 3/5=44,7=101,11=2,25=1,30=1,70=2201,71=2,72=1,74=-58,140=1/1,2,3;
 4//1;
 5/5=2,38=5,53=1/2;
 8/6=4,10=90,11=11/1;
 11/6=1,8=1,9=11,15=111,16=1/1,2,10;
 10/6=1,13=1/2;
 6/7=2,8=2,9=2,10=2,28=1/1;
 7/10=1,18=20,25=1/1,2,3,16;
 1/5=1,6=70,8=3,10=4,11=1,18=20,26=3/3(2);
 2/9=110/2;
 99//99;
 2/9=110/2;
 3/5=44,7=101,11=2,25=1,30=1,70=2205,71=1,72=1,74=-58/1,2,3;
 4/5=5,16=3,69=1/1;
 5/5=2,38=5,53=1/2;
 7//1,2,3,16;
 1/5=1,6=70,8=3,11=1,18=20,26=3/3(-5);
 2/9=110/2;
 6/7=2,8=2,9=2,10=2,19=2,28=1/1;
 99/9=1/99;
 -----------------------
 0_iteration/TS-10-0.out
 -----------------------
 Symbolic Z-matrix:
 Charge =  0 Multiplicity = 1
 C                    -0.22322   1.61379  -0.6614 
 C                    -1.44272   2.30737  -0.756 
 O                    -1.57713   3.31277  -1.4908 
 C                     0.084     0.43009   0.0893 
 C                     0.94878   2.1228    2.076 
 H                     0.63027   2.8398    1.3192 
 H                     0.71907   2.506     3.0679 
 H                     2.01778   1.95021   1.9929 
 N                     0.23169   0.86849   1.8403 
 H                     0.6711    0.1089    2.3498 
 H                    -0.72371   0.95238   2.172 
 C                     1.4814   -0.12409  -0.1642 
 C                     1.72852  -1.49539  -0.1638 
 C                     3.00592  -1.99438  -0.3778 
 C                     4.06781  -1.13157  -0.5902 
 C                     3.8391    0.23703  -0.5878 
 C                     2.56329   0.73292  -0.3786 
 H                     0.91812  -2.1929   -0.0054 
 H                     3.16533  -3.06518  -0.3792 
 H                     5.06442  -1.51946  -0.7574 
 H                     4.65809   0.92614  -0.7503 
 H                     2.41738   1.80372  -0.3824 
 C                    -0.97569  -0.66672   0.1059 
 C                    -1.33079  -1.42742   1.2165 
 C                    -2.27207  -2.44363   1.1175 
 C                    -2.86327  -2.73594  -0.0995 
 C                    -2.50078  -2.00234  -1.2201 
 C                    -1.57129  -0.98203  -1.115 
 H                    -0.88759  -1.26222   2.188 
 H                    -2.53567  -3.00944   2.0018 
 H                    -3.59596  -3.52895  -0.176 
 H                    -2.94698  -2.22104  -2.1819 
 H                    -1.2993   -0.40832  -1.9904 
 H                     0.58558   2.0769   -1.2088 
 C                    -2.67742   1.89826   0.034 
 H                    -2.49861   1.19966   0.8485 
 H                    -3.14053   2.80116   0.4325 
 H                    -3.39291   1.42845  -0.6449 
 
 Add virtual bond connecting atoms N9         and C4         Dist= 3.42D+00.

 GradGradGradGradGradGradGradGradGradGradGradGradGradGradGradGradGradGrad
 Berny optimization.
 Initialization pass.
                           ----------------------------
                           !    Initial Parameters    !
                           ! (Angstroms and Degrees)  !
 --------------------------                            --------------------------
 ! Name  Definition              Value          Derivative Info.                !
 --------------------------------------------------------------------------------
 ! R1    R(1,2)                  1.4061         calculate D2E/DX2 analytically  !
 ! R2    R(1,4)                  1.4349         calculate D2E/DX2 analytically  !
 ! R3    R(1,34)                 1.0809         calculate D2E/DX2 analytically  !
 ! R4    R(2,3)                  1.2525         calculate D2E/DX2 analytically  !
 ! R5    R(2,35)                 1.5218         calculate D2E/DX2 analytically  !
 ! R6    R(4,9)                  1.8111         calculate D2E/DX2 analytically  !
 ! R7    R(4,12)                 1.5245         calculate D2E/DX2 analytically  !
 ! R8    R(4,23)                 1.5252         calculate D2E/DX2 analytically  !
 ! R9    R(5,6)                  1.0901         calculate D2E/DX2 analytically  !
 ! R10   R(5,7)                  1.0879         calculate D2E/DX2 analytically  !
 ! R11   R(5,8)                  1.086          calculate D2E/DX2 analytically  !
 ! R12   R(5,9)                  1.4639         calculate D2E/DX2 analytically  !
 ! R13   R(9,10)                 1.0147         calculate D2E/DX2 analytically  !
 ! R14   R(9,11)                 1.0148         calculate D2E/DX2 analytically  !
 ! R15   R(12,13)                1.3934         calculate D2E/DX2 analytically  !
 ! R16   R(12,17)                1.3968         calculate D2E/DX2 analytically  !
 ! R17   R(13,14)                1.388          calculate D2E/DX2 analytically  !
 ! R18   R(13,18)                1.0809         calculate D2E/DX2 analytically  !
 ! R19   R(14,15)                1.3846         calculate D2E/DX2 analytically  !
 ! R20   R(14,19)                1.0826         calculate D2E/DX2 analytically  !
 ! R21   R(15,16)                1.3876         calculate D2E/DX2 analytically  !
 ! R22   R(15,20)                1.0824         calculate D2E/DX2 analytically  !
 ! R23   R(16,17)                1.3847         calculate D2E/DX2 analytically  !
 ! R24   R(16,21)                1.0826         calculate D2E/DX2 analytically  !
 ! R25   R(17,22)                1.0807         calculate D2E/DX2 analytically  !
 ! R26   R(23,24)                1.3922         calculate D2E/DX2 analytically  !
 ! R27   R(23,28)                1.3945         calculate D2E/DX2 analytically  !
 ! R28   R(24,25)                1.3887         calculate D2E/DX2 analytically  !
 ! R29   R(24,29)                1.0805         calculate D2E/DX2 analytically  !
 ! R30   R(25,26)                1.3842         calculate D2E/DX2 analytically  !
 ! R31   R(25,30)                1.0824         calculate D2E/DX2 analytically  !
 ! R32   R(26,27)                1.3876         calculate D2E/DX2 analytically  !
 ! R33   R(26,31)                1.0824         calculate D2E/DX2 analytically  !
 ! R34   R(27,28)                1.3842         calculate D2E/DX2 analytically  !
 ! R35   R(27,32)                1.0826         calculate D2E/DX2 analytically  !
 ! R36   R(28,33)                1.0814         calculate D2E/DX2 analytically  !
 ! R37   R(35,36)                1.0879         calculate D2E/DX2 analytically  !
 ! R38   R(35,37)                1.0902         calculate D2E/DX2 analytically  !
 ! R39   R(35,38)                1.0925         calculate D2E/DX2 analytically  !
 ! A1    A(2,1,4)              128.8858         calculate D2E/DX2 analytically  !
 ! A2    A(2,1,34)             113.8009         calculate D2E/DX2 analytically  !
 ! A3    A(4,1,34)             117.2699         calculate D2E/DX2 analytically  !
 ! A4    A(1,2,3)              121.9023         calculate D2E/DX2 analytically  !
 ! A5    A(1,2,35)             122.42           calculate D2E/DX2 analytically  !
 ! A6    A(3,2,35)             115.6748         calculate D2E/DX2 analytically  !
 ! A7    A(1,4,9)              108.8794         calculate D2E/DX2 analytically  !
 ! A8    A(1,4,12)             114.1497         calculate D2E/DX2 analytically  !
 ! A9    A(1,4,23)             116.7536         calculate D2E/DX2 analytically  !
 ! A10   A(9,4,12)             100.0212         calculate D2E/DX2 analytically  !
 ! A11   A(9,4,23)             102.7215         calculate D2E/DX2 analytically  !
 ! A12   A(12,4,23)            112.1641         calculate D2E/DX2 analytically  !
 ! A13   A(6,5,7)              109.8539         calculate D2E/DX2 analytically  !
 ! A14   A(6,5,8)              109.8168         calculate D2E/DX2 analytically  !
 ! A15   A(6,5,9)              107.9786         calculate D2E/DX2 analytically  !
 ! A16   A(7,5,8)              109.4868         calculate D2E/DX2 analytically  !
 ! A17   A(7,5,9)              110.1927         calculate D2E/DX2 analytically  !
 ! A18   A(8,5,9)              109.4922         calculate D2E/DX2 analytically  !
 ! A19   A(4,9,5)              113.7669         calculate D2E/DX2 analytically  !
 ! A20   A(4,9,10)             109.8503         calculate D2E/DX2 analytically  !
 ! A21   A(4,9,11)             105.0256         calculate D2E/DX2 analytically  !
 ! A22   A(5,9,10)             110.3911         calculate D2E/DX2 analytically  !
 ! A23   A(5,9,11)             109.7373         calculate D2E/DX2 analytically  !
 ! A24   A(10,9,11)            107.785          calculate D2E/DX2 analytically  !
 ! A25   A(4,12,13)            121.3504         calculate D2E/DX2 analytically  !
 ! A26   A(4,12,17)            120.829          calculate D2E/DX2 analytically  !
 ! A27   A(13,12,17)           117.8085         calculate D2E/DX2 analytically  !
 ! A28   A(12,13,14)           121.1299         calculate D2E/DX2 analytically  !
 ! A29   A(12,13,18)           120.142          calculate D2E/DX2 analytically  !
 ! A30   A(14,13,18)           118.725          calculate D2E/DX2 analytically  !
 ! A31   A(13,14,15)           120.3606         calculate D2E/DX2 analytically  !
 ! A32   A(13,14,19)           119.4259         calculate D2E/DX2 analytically  !
 ! A33   A(15,14,19)           120.2134         calculate D2E/DX2 analytically  !
 ! A34   A(14,15,16)           119.2054         calculate D2E/DX2 analytically  !
 ! A35   A(14,15,20)           120.4316         calculate D2E/DX2 analytically  !
 ! A36   A(16,15,20)           120.363          calculate D2E/DX2 analytically  !
 ! A37   A(15,16,17)           120.3548         calculate D2E/DX2 analytically  !
 ! A38   A(15,16,21)           120.1903         calculate D2E/DX2 analytically  !
 ! A39   A(17,16,21)           119.4549         calculate D2E/DX2 analytically  !
 ! A40   A(12,17,16)           121.1396         calculate D2E/DX2 analytically  !
 ! A41   A(12,17,22)           120.2592         calculate D2E/DX2 analytically  !
 ! A42   A(16,17,22)           118.6011         calculate D2E/DX2 analytically  !
 ! A43   A(4,23,24)            125.3687         calculate D2E/DX2 analytically  !
 ! A44   A(4,23,28)            116.7314         calculate D2E/DX2 analytically  !
 ! A45   A(24,23,28)           117.77           calculate D2E/DX2 analytically  !
 ! A46   A(23,24,25)           121.0549         calculate D2E/DX2 analytically  !
 ! A47   A(23,24,29)           121.9437         calculate D2E/DX2 analytically  !
 ! A48   A(25,24,29)           117.0004         calculate D2E/DX2 analytically  !
 ! A49   A(24,25,26)           120.4445         calculate D2E/DX2 analytically  !
 ! A50   A(24,25,30)           119.2976         calculate D2E/DX2 analytically  !
 ! A51   A(26,25,30)           120.2572         calculate D2E/DX2 analytically  !
 ! A52   A(25,26,27)           119.1319         calculate D2E/DX2 analytically  !
 ! A53   A(25,26,31)           120.3959         calculate D2E/DX2 analytically  !
 ! A54   A(27,26,31)           120.4719         calculate D2E/DX2 analytically  !
 ! A55   A(26,27,28)           120.2525         calculate D2E/DX2 analytically  !
 ! A56   A(26,27,32)           120.2002         calculate D2E/DX2 analytically  !
 ! A57   A(28,27,32)           119.5466         calculate D2E/DX2 analytically  !
 ! A58   A(23,28,27)           121.3273         calculate D2E/DX2 analytically  !
 ! A59   A(23,28,33)           118.7723         calculate D2E/DX2 analytically  !
 ! A60   A(27,28,33)           119.8994         calculate D2E/DX2 analytically  !
 ! A61   A(2,35,36)            115.3376         calculate D2E/DX2 analytically  !
 ! A62   A(2,35,37)            108.1653         calculate D2E/DX2 analytically  !
 ! A63   A(2,35,38)            108.9272         calculate D2E/DX2 analytically  !
 ! A64   A(36,35,37)           109.1475         calculate D2E/DX2 analytically  !
 ! A65   A(36,35,38)           107.263          calculate D2E/DX2 analytically  !
 ! A66   A(37,35,38)           107.7642         calculate D2E/DX2 analytically  !
 ! D1    D(4,1,2,3)           -177.6713         calculate D2E/DX2 analytically  !
 ! D2    D(4,1,2,35)             2.9772         calculate D2E/DX2 analytically  !
 ! D3    D(34,1,2,3)             4.82           calculate D2E/DX2 analytically  !
 ! D4    D(34,1,2,35)         -174.5315         calculate D2E/DX2 analytically  !
 ! D5    D(2,1,4,9)            -75.3109         calculate D2E/DX2 analytically  !
 ! D6    D(2,1,4,12)           173.9032         calculate D2E/DX2 analytically  !
 ! D7    D(2,1,4,23)            40.3491         calculate D2E/DX2 analytically  !
 ! D8    D(34,1,4,9)           102.1246         calculate D2E/DX2 analytically  !
 ! D9    D(34,1,4,12)           -8.6613         calculate D2E/DX2 analytically  !
 ! D10   D(34,1,4,23)         -142.2154         calculate D2E/DX2 analytically  !
 ! D11   D(1,2,35,36)           14.3538         calculate D2E/DX2 analytically  !
 ! D12   D(1,2,35,37)          136.8545         calculate D2E/DX2 analytically  !
 ! D13   D(1,2,35,38)         -106.2753         calculate D2E/DX2 analytically  !
 ! D14   D(3,2,35,36)         -165.0353         calculate D2E/DX2 analytically  !
 ! D15   D(3,2,35,37)          -42.5346         calculate D2E/DX2 analytically  !
 ! D16   D(3,2,35,38)           74.3356         calculate D2E/DX2 analytically  !
 ! D17   D(1,4,9,5)            -41.5468         calculate D2E/DX2 analytically  !
 ! D18   D(1,4,9,10)          -165.8617         calculate D2E/DX2 analytically  !
 ! D19   D(1,4,9,11)            78.471          calculate D2E/DX2 analytically  !
 ! D20   D(12,4,9,5)            78.421          calculate D2E/DX2 analytically  !
 ! D21   D(12,4,9,10)          -45.8939         calculate D2E/DX2 analytically  !
 ! D22   D(12,4,9,11)         -161.5612         calculate D2E/DX2 analytically  !
 ! D23   D(23,4,9,5)          -165.9439         calculate D2E/DX2 analytically  !
 ! D24   D(23,4,9,10)           69.7412         calculate D2E/DX2 analytically  !
 ! D25   D(23,4,9,11)          -45.926          calculate D2E/DX2 analytically  !
 ! D26   D(1,4,12,13)         -144.842          calculate D2E/DX2 analytically  !
 ! D27   D(1,4,12,17)           36.4488         calculate D2E/DX2 analytically  !
 ! D28   D(9,4,12,13)           99.0964         calculate D2E/DX2 analytically  !
 ! D29   D(9,4,12,17)          -79.6128         calculate D2E/DX2 analytically  !
 ! D30   D(23,4,12,13)          -9.171          calculate D2E/DX2 analytically  !
 ! D31   D(23,4,12,17)         172.1199         calculate D2E/DX2 analytically  !
 ! D32   D(1,4,23,24)         -139.404          calculate D2E/DX2 analytically  !
 ! D33   D(1,4,23,28)           44.8481         calculate D2E/DX2 analytically  !
 ! D34   D(9,4,23,24)          -20.3722         calculate D2E/DX2 analytically  !
 ! D35   D(9,4,23,28)          163.8799         calculate D2E/DX2 analytically  !
 ! D36   D(12,4,23,24)          86.1621         calculate D2E/DX2 analytically  !
 ! D37   D(12,4,23,28)         -89.5857         calculate D2E/DX2 analytically  !
 ! D38   D(6,5,9,4)             40.6725         calculate D2E/DX2 analytically  !
 ! D39   D(6,5,9,10)           164.6955         calculate D2E/DX2 analytically  !
 ! D40   D(6,5,9,11)           -76.647          calculate D2E/DX2 analytically  !
 ! D41   D(7,5,9,4)            160.6585         calculate D2E/DX2 analytically  !
 ! D42   D(7,5,9,10)           -75.3185         calculate D2E/DX2 analytically  !
 ! D43   D(7,5,9,11)            43.3391         calculate D2E/DX2 analytically  !
 ! D44   D(8,5,9,4)            -78.8621         calculate D2E/DX2 analytically  !
 ! D45   D(8,5,9,10)            45.1609         calculate D2E/DX2 analytically  !
 ! D46   D(8,5,9,11)           163.8184         calculate D2E/DX2 analytically  !
 ! D47   D(4,12,13,14)        -179.1485         calculate D2E/DX2 analytically  !
 ! D48   D(4,12,13,18)           1.4915         calculate D2E/DX2 analytically  !
 ! D49   D(17,12,13,14)         -0.4017         calculate D2E/DX2 analytically  !
 ! D50   D(17,12,13,18)       -179.7616         calculate D2E/DX2 analytically  !
 ! D51   D(4,12,17,16)         178.9363         calculate D2E/DX2 analytically  !
 ! D52   D(4,12,17,22)          -0.9644         calculate D2E/DX2 analytically  !
 ! D53   D(13,12,17,16)          0.1826         calculate D2E/DX2 analytically  !
 ! D54   D(13,12,17,22)       -179.7181         calculate D2E/DX2 analytically  !
 ! D55   D(12,13,14,15)          0.3485         calculate D2E/DX2 analytically  !
 ! D56   D(12,13,14,19)       -179.536          calculate D2E/DX2 analytically  !
 ! D57   D(18,13,14,15)        179.7174         calculate D2E/DX2 analytically  !
 ! D58   D(18,13,14,19)         -0.1672         calculate D2E/DX2 analytically  !
 ! D59   D(13,14,15,16)         -0.0636         calculate D2E/DX2 analytically  !
 ! D60   D(13,14,15,20)       -179.9878         calculate D2E/DX2 analytically  !
 ! D61   D(19,14,15,16)        179.82           calculate D2E/DX2 analytically  !
 ! D62   D(19,14,15,20)         -0.1042         calculate D2E/DX2 analytically  !
 ! D63   D(14,15,16,17)         -0.1535         calculate D2E/DX2 analytically  !
 ! D64   D(14,15,16,21)        179.881          calculate D2E/DX2 analytically  !
 ! D65   D(20,15,16,17)        179.7707         calculate D2E/DX2 analytically  !
 ! D66   D(20,15,16,21)         -0.1948         calculate D2E/DX2 analytically  !
 ! D67   D(15,16,17,12)          0.0923         calculate D2E/DX2 analytically  !
 ! D68   D(15,16,17,22)        179.9946         calculate D2E/DX2 analytically  !
 ! D69   D(21,16,17,12)       -179.942          calculate D2E/DX2 analytically  !
 ! D70   D(21,16,17,22)         -0.0397         calculate D2E/DX2 analytically  !
 ! D71   D(4,23,24,25)        -177.3142         calculate D2E/DX2 analytically  !
 ! D72   D(4,23,24,29)           2.3079         calculate D2E/DX2 analytically  !
 ! D73   D(28,23,24,25)         -1.6063         calculate D2E/DX2 analytically  !
 ! D74   D(28,23,24,29)        178.0158         calculate D2E/DX2 analytically  !
 ! D75   D(4,23,28,27)         177.0872         calculate D2E/DX2 analytically  !
 ! D76   D(4,23,28,33)          -3.2765         calculate D2E/DX2 analytically  !
 ! D77   D(24,23,28,27)          1.0054         calculate D2E/DX2 analytically  !
 ! D78   D(24,23,28,33)       -179.3583         calculate D2E/DX2 analytically  !
 ! D79   D(23,24,25,26)          1.0538         calculate D2E/DX2 analytically  !
 ! D80   D(23,24,25,30)       -179.2651         calculate D2E/DX2 analytically  !
 ! D81   D(29,24,25,26)       -178.5864         calculate D2E/DX2 analytically  !
 ! D82   D(29,24,25,30)          1.0948         calculate D2E/DX2 analytically  !
 ! D83   D(24,25,26,27)          0.1509         calculate D2E/DX2 analytically  !
 ! D84   D(24,25,26,31)        179.9265         calculate D2E/DX2 analytically  !
 ! D85   D(30,25,26,27)       -179.5271         calculate D2E/DX2 analytically  !
 ! D86   D(30,25,26,31)          0.2484         calculate D2E/DX2 analytically  !
 ! D87   D(25,26,27,28)         -0.7484         calculate D2E/DX2 analytically  !
 ! D88   D(25,26,27,32)        179.5594         calculate D2E/DX2 analytically  !
 ! D89   D(31,26,27,28)        179.4762         calculate D2E/DX2 analytically  !
 ! D90   D(31,26,27,32)         -0.216          calculate D2E/DX2 analytically  !
 ! D91   D(26,27,28,23)          0.1601         calculate D2E/DX2 analytically  !
 ! D92   D(26,27,28,33)       -179.4722         calculate D2E/DX2 analytically  !
 ! D93   D(32,27,28,23)        179.8543         calculate D2E/DX2 analytically  !
 ! D94   D(32,27,28,33)          0.222          calculate D2E/DX2 analytically  !
 --------------------------------------------------------------------------------
 Trust Radius=3.00D-02 FncErr=1.00D-07 GrdErr=1.00D-06 EigMax=2.50D+02 EigMin=1.00D-04
 Number of steps in this run=     70 maximum allowed number of steps=    228.
 Search for a saddle point of order  1.
 GradGradGradGradGradGradGradGradGradGradGradGradGradGradGradGradGradGrad

                          Input orientation:                          
 ---------------------------------------------------------------------
 Center     Atomic      Atomic             Coordinates (Angstroms)
 Number     Number       Type             X           Y           Z
 ---------------------------------------------------------------------
      1          6           0       -0.223220    1.613790   -0.661400
      2          6           0       -1.442720    2.307370   -0.756000
      3          8           0       -1.577130    3.312770   -1.490800
      4          6           0        0.084000    0.430090    0.089300
      5          6           0        0.948780    2.122800    2.076000
      6          1           0        0.630270    2.839800    1.319200
      7          1           0        0.719070    2.506000    3.067900
      8          1           0        2.017780    1.950210    1.992900
      9          7           0        0.231690    0.868490    1.840300
     10          1           0        0.671100    0.108900    2.349800
     11          1           0       -0.723710    0.952380    2.172000
     12          6           0        1.481400   -0.124090   -0.164200
     13          6           0        1.728520   -1.495390   -0.163800
     14          6           0        3.005920   -1.994380   -0.377800
     15          6           0        4.067810   -1.131570   -0.590200
     16          6           0        3.839100    0.237030   -0.587800
     17          6           0        2.563290    0.732920   -0.378600
     18          1           0        0.918120   -2.192900   -0.005400
     19          1           0        3.165330   -3.065180   -0.379200
     20          1           0        5.064420   -1.519460   -0.757400
     21          1           0        4.658090    0.926140   -0.750300
     22          1           0        2.417380    1.803720   -0.382400
     23          6           0       -0.975690   -0.666720    0.105900
     24          6           0       -1.330790   -1.427420    1.216500
     25          6           0       -2.272070   -2.443630    1.117500
     26          6           0       -2.863270   -2.735940   -0.099500
     27          6           0       -2.500780   -2.002340   -1.220100
     28          6           0       -1.571290   -0.982030   -1.115000
     29          1           0       -0.887590   -1.262220    2.188000
     30          1           0       -2.535670   -3.009440    2.001800
     31          1           0       -3.595960   -3.528950   -0.176000
     32          1           0       -2.946980   -2.221040   -2.181900
     33          1           0       -1.299300   -0.408320   -1.990400
     34          1           0        0.585580    2.076900   -1.208800
     35          6           0       -2.677420    1.898260    0.034000
     36          1           0       -2.498610    1.199660    0.848500
     37          1           0       -3.140530    2.801160    0.432500
     38          1           0       -3.392910    1.428450   -0.644900
 ---------------------------------------------------------------------
                    Distance matrix (angstroms):
                    1          2          3          4          5
     1  C    0.000000
     2  C    1.406123   0.000000
     3  O    2.325405   1.252528   0.000000
     4  C    1.434950   2.563120   3.683193   0.000000
     5  C    3.020933   3.711275   4.529714   2.749562   0.000000
     6  H    2.480791   2.981145   3.604499   2.760030   1.090084
     7  H    3.948624   4.397158   5.167703   3.685753   1.087876
     8  H    3.490067   4.433856   5.188074   3.110299   1.086027
     9  N    2.649702   3.408049   4.510273   1.811079   1.463921
    10  H    3.483077   4.352872   5.483569   2.357480   2.051308
    11  H    2.952306   3.305474   4.440256   2.294084   2.043605
    12  C    2.484585   3.848727   4.788160   1.524501   3.217250
    13  C    3.704578   4.986827   5.983866   2.544794   4.326199
    14  C    4.850429   6.199878   7.099927   3.825422   5.215758
    15  C    5.094606   6.497672   7.240759   4.332579   5.237165
    16  C    4.289910   5.675581   6.293738   3.820538   4.359577
    17  C    2.936077   4.320815   5.003568   2.541164   3.250149
    18  H    4.027888   5.137061   6.224555   2.754052   4.791496
    19  H    5.784001   7.088046   8.025262   4.683054   6.152742
    20  H    6.147000   7.549007   8.246121   5.415000   6.183260
    21  H    4.930310   6.255215   6.717314   4.676889   4.814452
    22  H    2.662082   3.910705   4.411564   2.748458   2.881376
    23  C    2.521049   3.131485   4.329841   1.525192   3.919987
    24  C    3.741948   4.225156   5.464390   2.592789   4.305722
    25  C    4.881079   5.173956   6.357854   3.855714   5.669645
    26  C    5.119155   5.280524   6.338514   4.329641   6.547662
    27  C    4.309968   4.461892   5.401556   3.783164   6.307180
    28  C    2.959954   3.311429   4.311214   2.486847   5.115975
    29  H    4.102670   4.660180   5.910970   2.865736   3.852682
    30  H    5.815008   6.088388   7.286110   4.727652   6.203772
    31  H    6.169178   6.247838   7.253517   5.411699   7.593974
    32  H    4.943350   4.980209   5.742574   4.623168   7.223268
    33  H    2.648229   2.986517   3.764744   2.634692   5.291129
    34  H    1.080868   2.090968   2.506833   2.156068   3.305137
    35  C    2.566632   1.521826   2.352975   3.127942   4.167674
    36  H    2.762010   2.217283   3.284309   2.799732   3.774048
    37  H    3.334241   2.130474   2.530819   4.017132   4.459117
    38  H    3.175147   2.141981   2.750139   3.691162   5.170657
                    6          7          8          9         10
     6  H    0.000000
     7  H    1.782487   0.000000
     8  H    1.780569   1.775155   0.000000
     9  N    2.077613   2.103801   2.093686   0.000000
    10  H    2.919181   2.502810   2.308971   1.014716   0.000000
    11  H    2.474446   2.301735   2.922928   1.014816   1.639685
    12  C    3.421921   4.236153   3.040313   2.562228   2.651616
    13  C    4.711615   5.241564   4.075191   3.441634   3.163869
    14  C    5.647373   6.111952   4.707062   4.562055   4.161126
    15  C    5.588763   6.150420   4.513579   4.962196   4.660473
    16  C    4.550566   5.314786   3.593356   4.394066   4.322284
    17  C    3.325362   4.292240   2.720917   3.221530   3.378454
    18  H    5.212053   5.618225   4.729462   3.640042   3.302464
    19  H    6.646795   6.993192   5.665498   5.385739   4.872721
    20  H    6.555692   7.051192   5.374456   5.983781   5.622056
    21  H    4.916122   5.708808   3.942728   5.129089   5.116111
    22  H    2.676316   3.909223   2.413129   3.254580   3.658801
    23  C    4.043128   4.659593   4.401131   2.612045   2.889393
    24  C    4.697390   4.806392   4.819139   2.846344   2.766263
    25  C    6.031492   6.103263   6.202819   4.214427   4.086101
    26  C    6.731003   7.095317   7.082569   5.131619   5.155963
    27  C    6.300622   7.005677   6.809068   5.007405   5.221335
    28  C    5.037716   5.908363   5.580188   3.925425   4.268873
    29  H    4.459291   4.189876   4.335775   2.431791   2.082226
    30  H    6.686010   6.492302   6.732913   4.766834   4.486482
    31  H    7.788300   8.097098   8.138759   6.168780   6.149912
    32  H    7.118042   7.958972   7.712141   5.985585   6.249434
    33  H    5.022646   6.176850   5.694942   4.318384   4.794510
    34  H    2.640984   4.300245   3.509719   3.298864   4.067428
    35  C    3.671383   4.594567   5.087720   3.575761   4.447170
    36  H    3.563917   4.121374   4.719190   2.923676   3.672972
    37  H    3.873843   4.682837   5.455926   4.133882   5.045079
    38  H    4.694207   5.643968   6.042002   4.430293   5.217817
                   11         12         13         14         15
    11  H    0.000000
    12  C    3.388086   0.000000
    13  C    4.178633   1.393389   0.000000
    14  C    5.393979   2.422348   1.387998   0.000000
    15  C    5.910267   2.808204   2.405506   1.384617   0.000000
    16  C    5.380284   2.422518   2.763259   2.391125   1.387581
    17  C    4.166304   1.396753   2.389214   2.762985   2.405136
    18  H    4.162867   2.149995   1.080907   2.130024   3.374753
    19  H    6.146059   3.395859   2.138939   1.082602   2.144257
    20  H    6.942177   3.890627   3.388387   2.146408   1.082426
    21  H    6.124075   3.396742   3.845799   3.376072   2.146680
    22  H    4.137171   2.154094   3.377342   3.843431   3.373874
    23  C    2.636996   2.530749   2.841159   4.224910   5.112488
    24  C    2.635332   3.393142   3.356967   4.655136   5.700577
    25  C    3.878437   4.594732   4.306461   5.504083   6.695657
    26  C    4.831266   5.069724   4.756851   5.922394   7.131245
    27  C    4.836806   4.527748   4.388593   5.570752   6.655929
    28  C    3.907007   3.310438   3.472329   4.745437   5.665441
    29  H    2.220713   3.527081   3.525530   4.720043   5.682557
    30  H    4.359838   5.399412   5.016521   6.115723   7.338311
    31  H    5.817666   6.113329   5.699614   6.780888   8.040669
    32  H    5.828376   5.298949   5.143889   6.224401   7.275145
    33  H    4.416829   3.338875   3.699444   4.863228   5.593704
    34  H    3.795865   2.595773   3.893532   4.808735   4.775235
    35  C    3.046755   4.628711   5.564916   6.900911   7.420756
    36  H    2.227795   4.314899   5.114360   6.481169   7.114939
    37  H    3.504977   5.502306   6.521009   7.837898   8.274808
    38  H    3.909757   5.138127   5.916869   7.261689   7.887905
                   16         17         18         19         20
    16  C    0.000000
    17  C    1.384689   0.000000
    18  H    3.843940   3.377319   0.000000
    19  H    3.376695   3.845519   2.439375   0.000000
    20  H    2.148355   3.387087   4.267415   2.477666   0.000000
    21  H    1.082600   2.136278   4.926526   4.277462   2.479136
    22  H    2.125557   1.080702   4.285193   4.926015   4.265087
    23  C    4.947746   3.836419   2.434775   4.809987   6.160794
    24  C    5.723081   4.730251   2.671441   5.044166   6.693539
    25  C    6.887698   5.975742   3.391325   5.673778   7.628462
    26  C    7.348384   6.446584   3.821342   6.044059   8.047417
    27  C    6.753418   5.816749   3.633275   5.825937   7.594703
    28  C    5.571029   4.536308   2.982378   5.226517   6.667035
    29  H    5.682817   4.740948   2.989608   5.125167   6.645899
    30  H    7.608107   6.758029   4.077285   6.178484   8.221593
    31  H    8.344597   7.492726   4.710738   6.780222   8.909448
    32  H    7.391491   6.506984   4.435870   6.428268   8.167248
    33  H    5.365344   4.338194   3.470144   5.439466   6.576614
    34  H    3.788952   2.531176   4.448589   5.812429   5.761734
    35  C    6.753618   5.384542   5.446747   7.677513   8.499601
    36  H    6.569337   5.229384   4.890056   7.195577   8.195850
    37  H    7.505399   6.121198   6.450196   8.650819   9.349055
    38  H    7.329714   6.002582   5.666402   7.954484   8.957079
                   21         22         23         24         25
    21  H    0.000000
    22  H    2.434395   0.000000
    23  C    5.916904   4.225451   0.000000
    24  C    6.728613   5.200531   1.392190   0.000000
    25  C    7.929133   6.502355   2.421021   1.388701   0.000000
    26  C    8.390782   6.969491   2.808348   2.406777   1.384215
    27  C    7.748944   6.275040   2.422407   2.763409   2.389858
    28  C    6.525281   4.920020   1.394545   2.385813   2.758881
    29  H    6.646585   5.189390   2.167377   1.080523   2.111512
    30  H    8.649452   7.306410   3.393569   2.138041   1.082410
    31  H    9.397180   8.039915   3.890712   3.389171   2.145634
    32  H    8.354119   6.943576   3.396458   3.845910   3.375069
    33  H    6.229697   4.614379   2.136813   3.365080   3.840288
    34  H    4.256737   2.028067   3.419569   4.672774   5.832069
    35  C    7.441092   5.112662   3.078990   3.777812   4.493361
    36  H    7.338210   5.103622   2.520737   2.898409   3.660225
    37  H    8.107601   5.705200   4.101145   4.665909   5.360156
    38  H    8.067343   5.828311   3.285786   3.984111   4.399470
                   26         27         28         29         30
    26  C    0.000000
    27  C    1.387556   0.000000
    28  C    2.403467   1.384207   0.000000
    29  H    3.362710   3.842565   3.384636   0.000000
    30  H    2.144198   3.375812   3.841206   2.409069   0.000000
    31  H    1.082382   2.149442   3.386416   4.249921   2.477280
    32  H    2.146746   1.082582   2.136807   4.925084   4.277160
    33  H    3.382206   2.139583   1.081410   4.284586   4.922611
    34  H    6.023997   5.115266   3.744054   4.985800   6.776504
    35  C    4.639846   4.101055   3.292384   4.222776   5.289409
    36  H    4.064558   3.812075   3.078153   3.232723   4.364401
    37  H    5.569504   5.119959   4.378333   4.966747   6.049102
    38  H    4.233217   3.591249   3.057729   4.641299   5.237819
                   31         32         33         34         35
    31  H    0.000000
    32  H    2.481016   0.000000
    33  H    4.278437   2.457127   0.000000
    34  H    7.069477   5.647848   3.215585   0.000000
    35  C    5.508396   4.685244   3.364182   3.496231   0.000000
    36  H    4.961202   4.591900   3.476104   3.809759   1.087853
    37  H    6.375577   5.665249   4.422820   4.135494   1.090184
    38  H    4.983664   3.984972   3.093105   4.070240   1.092498
                   36         37         38
    36  H    0.000000
    37  H    1.774801   0.000000
    38  H    1.755665   1.763184   0.000000
 Stoichiometry    C17H19NO
 Framework group  C1[X(C17H19NO)]
 Deg. of freedom   108
 Full point group                 C1      NOp   1
 Largest Abelian subgroup         C1      NOp   1
 Largest concise Abelian subgroup C1      NOp   1
                         Standard orientation:                         
 ---------------------------------------------------------------------
 Center     Atomic      Atomic             Coordinates (Angstroms)
 Number     Number       Type             X           Y           Z
 ---------------------------------------------------------------------
      1          6           0       -0.223219    1.613791   -0.661403
      2          6           0       -1.442718    2.307372   -0.756003
      3          8           0       -1.577127    3.312773   -1.490803
      4          6           0        0.084000    0.430091    0.089297
      5          6           0        0.948782    2.122800    2.075997
      6          1           0        0.630273    2.839800    1.319197
      7          1           0        0.719072    2.506000    3.067897
      8          1           0        2.017782    1.950208    1.992897
      9          7           0        0.231690    0.868490    1.840297
     10          1           0        0.671099    0.108900    2.349797
     11          1           0       -0.723710    0.952382    2.171997
     12          6           0        1.481399   -0.124091   -0.164203
     13          6           0        1.728518   -1.495391   -0.163803
     14          6           0        3.005917   -1.994383   -0.377803
     15          6           0        4.067808   -1.131574   -0.590203
     16          6           0        3.839100    0.237026   -0.587803
     17          6           0        2.563290    0.732918   -0.378603
     18          1           0        0.918117   -2.192900   -0.005403
     19          1           0        3.165326   -3.065183   -0.379203
     20          1           0        5.064418   -1.519465   -0.757403
     21          1           0        4.658090    0.926135   -0.750303
     22          1           0        2.417381    1.803718   -0.382403
     23          6           0       -0.975691   -0.666718    0.105897
     24          6           0       -1.330792   -1.427418    1.216497
     25          6           0       -2.272074   -2.443627    1.117497
     26          6           0       -2.863274   -2.735936   -0.099503
     27          6           0       -2.500783   -2.002336   -1.220103
     28          6           0       -1.571292   -0.982027   -1.115003
     29          1           0       -0.887592   -1.262218    2.187997
     30          1           0       -2.535674   -3.009436    2.001797
     31          1           0       -3.595965   -3.528945   -0.176003
     32          1           0       -2.946983   -2.221036   -2.181903
     33          1           0       -1.299301   -0.408318   -1.990403
     34          1           0        0.585582    2.076900   -1.208803
     35          6           0       -2.677418    1.898264    0.033997
     36          1           0       -2.498609    1.199664    0.848497
     37          1           0       -3.140527    2.801164    0.432497
     38          1           0       -3.392909    1.428455   -0.644903
 ---------------------------------------------------------------------
 Rotational constants (GHZ):           0.4656735           0.3398110           0.2491232
 Standard basis: def2TZVP (5D, 7F)
 There are   798 symmetry adapted cartesian basis functions of A   symmetry.
 There are   703 symmetry adapted basis functions of A   symmetry.
   703 basis functions,  1121 primitive gaussians,   798 cartesian basis functions
    68 alpha electrons       68 beta electrons
       nuclear repulsion energy      1419.3714416192 Hartrees.
 NAtoms=   38 NActive=   38 NUniq=   38 SFac= 1.00D+00 NAtFMM=   60 NAOKFM=F Big=F
 Integral buffers will be    131072 words long.
 Raffenetti 2 integral format.
 Two-electron integral symmetry is turned on.
 Nuclear repulsion after empirical dispersion term =     1419.3373858106 Hartrees.
 Force inversion solution in PCM.
 ------------------------------------------------------------------------------
 Polarizable Continuum Model (PCM)
 =================================
 Model                : PCM.
 Atomic radii         : UFF (Universal Force Field).
 Polarization charges : Total charges.
 Charge compensation  : None.
 Solution method      : Matrix inversion.
 Cavity type          : Scaled VdW (van der Waals Surface) (Alpha=1.100).
 Cavity algorithm     : GePol (No added spheres)
                        Default sphere list used, NSphG=   38.
                        Lebedev-Laikov grids with approx.  5.0 points / Ang**2.
                        Smoothing algorithm: York/Karplus (Gamma=1.0000).
                        Polarization charges: spherical gaussians, with
                                              point-specific exponents (IZeta= 3).
                        Self-potential: point-specific (ISelfS= 7).
                        Self-field    : sphere-specific E.n sum rule (ISelfD= 2).
 1st derivatives      : Analytical E(r).r(x)/FMM algorithm (CHGder, D1EAlg=3).
                        Cavity 1st derivative terms included.
 2nd derivatives      : Analytical E(r).r(xy)/FMM algorithm (CHGder, D2EAlg=3).
                        Cavity 2nd derivative terms included.
 Solvent              : Water, Eps=  78.355300 Eps(inf)=   1.777849
 ------------------------------------------------------------------------------
 One-electron integrals computed using PRISM.
   1 Symmetry operations used in ECPInt.
 ECPInt:  NShTT=   40755 NPrTT=  122740 LenC2=   37551 LenP2D=   82525.
 LDataN:  DoStor=T MaxTD1= 6 Len=  172
 NBasis=   703 RedAO= T EigKep=  6.15D-06  NBF=   703
 NBsUse=   703 1.00D-06 EigRej= -1.00D+00 NBFU=   703
 ExpMin= 9.52D-02 ExpMax= 2.70D+04 ExpMxC= 9.22D+02 IAcc=3 IRadAn=         5 AccDes= 0.00D+00
 Harris functional with IExCor= 4639 and IRadAn=       5 diagonalized for initial guess.
 HarFok:  IExCor= 4639 AccDes= 0.00D+00 IRadAn=         5 IDoV= 1 UseB2=F ITyADJ=14
 ICtDFT=  3500011 ScaDFX=  1.000000  1.000000  1.000000  1.000000
 FoFCou: FMM=F IPFlag=           0 FMFlag=      100000 FMFlg1=           0
         NFxFlg=           0 DoJE=T BraDBF=F KetDBF=T FulRan=T
         wScrn=  0.000000 ICntrl=       500 IOpCl=  0 I1Cent=   200000004 NGrid=           0
         NMat0=    1 NMatS0=      1 NMatT0=    0 NMatD0=    1 NMtDS0=    0 NMtDT0=    0
 Petite list used in FoFCou.
 Requested convergence on RMS density matrix=1.00D-08 within 128 cycles.
 Requested convergence on MAX density matrix=1.00D-06.
 Requested convergence on             energy=1.00D-06.
 No special actions if energy rises.
 Inv3:  Mode=1 IEnd=    20093232.
 Iteration    1 A*A^-1 deviation from unit magnitude is 3.55D-15 for    855.
 Iteration    1 A*A^-1 deviation from orthogonality  is 2.11D-15 for   2558   2528.
 Iteration    1 A^-1*A deviation from unit magnitude is 3.89D-15 for   2424.
 Iteration    1 A^-1*A deviation from orthogonality  is 6.38D-15 for   2291   2252.
 Error on total polarization charges =  0.01640
 SCF Done:  E(RwB97XD) =  -789.205165035     A.U. after   15 cycles
            NFock= 15  Conv=0.52D-08     -V/T= 2.0050
 DoSCS=F DFT=T ScalE2(SS,OS)=  1.000000  1.000000
 Range of M.O.s used for correlation:     1   703
 NBasis=   703 NAE=    68 NBE=    68 NFC=     0 NFV=     0
 NROrb=    703 NOA=    68 NOB=    68 NVA=   635 NVB=   635

 **** Warning!!: The largest alpha MO coefficient is  0.60505989D+02

   1 Symmetry operations used in ECPInt.
 ECPInt:  NShTT=   40755 NPrTT=  122740 LenC2=   37551 LenP2D=   82525.
 LDataN:  DoStor=T MaxTD1= 7 Len=  274
 Number of processors reduced to  22 by ecpmxn.
 Symmetrizing basis deriv contribution to polar:
 IMax=3 JMax=2 DiffMx= 0.00D+00
 G2DrvN: will do    39 centers at a time, making    1 passes.
 Calling FoFCou, ICntrl=  3107 FMM=F I1Cent=   0 AccDes= 0.00D+00.
 NEqPCM:  Using equilibrium solvation (IEInf=0, Eps=  78.3553, EpsInf=   1.7778)
 G2PCM: DoFxE=T DoFxN=T DoGrad=T DoDP/DQ/DG/TGxP=FFFF NFrqRd=   0 IEInf=0 SqF1=F DoCFld=F IF1Alg=4.
 End of G2Drv F.D. properties file   721 does not exist.
 End of G2Drv F.D. properties file   722 does not exist.
 End of G2Drv F.D. properties file   788 does not exist.
          IDoAtm=11111111111111111111111111111111111111
 NEqPCM:  Using equilibrium solvation (IEInf=0, Eps=  78.3553, EpsInf=   1.7778)
          Differentiating once with respect to nuclear coordinates.
 CalDSu exits because no D1Ps are significant.
          There are   117 degrees of freedom in the 1st order CPHF.  IDoFFX=6 NUNeed=     0.
    111 vectors produced by pass  0 Test12= 4.32D-14 1.00D-09 XBig12= 9.66D-02 8.55D-02.
 AX will form   111 AO Fock derivatives at one time.
    111 vectors produced by pass  1 Test12= 4.32D-14 1.00D-09 XBig12= 1.82D-02 2.28D-02.
    111 vectors produced by pass  2 Test12= 4.32D-14 1.00D-09 XBig12= 4.42D-04 2.81D-03.
    111 vectors produced by pass  3 Test12= 4.32D-14 1.00D-09 XBig12= 6.58D-06 2.86D-04.
    111 vectors produced by pass  4 Test12= 4.32D-14 1.00D-09 XBig12= 7.38D-08 2.62D-05.
    111 vectors produced by pass  5 Test12= 4.32D-14 1.00D-09 XBig12= 6.04D-10 2.58D-06.
    111 vectors produced by pass  6 Test12= 4.32D-14 1.00D-09 XBig12= 4.07D-12 1.55D-07.
     53 vectors produced by pass  7 Test12= 4.32D-14 1.00D-09 XBig12= 2.60D-14 1.31D-08.
     22 vectors produced by pass  8 Test12= 4.32D-14 1.00D-09 XBig12= 7.77D-15 8.19D-09.
      7 vectors produced by pass  9 Test12= 4.32D-14 1.00D-09 XBig12= 2.13D-15 4.31D-09.
      7 vectors produced by pass 10 Test12= 4.32D-14 1.00D-09 XBig12= 3.93D-15 5.63D-09.
      1 vectors produced by pass 11 Test12= 4.32D-14 1.00D-09 XBig12= 5.72D-16 1.61D-09.
 InvSVY:  IOpt=1 It=  1 EMax= 5.00D-16
 Solved reduced A of dimension   867 with   117 vectors.
 End of Minotr F.D. properties file   721 does not exist.
 End of Minotr F.D. properties file   722 does not exist.
 End of Minotr F.D. properties file   788 does not exist.

 **********************************************************************

            Population analysis using the SCF density.

 **********************************************************************

 Orbital symmetries:
       Occupied  (A) (A) (A) (A) (A) (A) (A) (A) (A) (A) (A) (A)
                 (A) (A) (A) (A) (A) (A) (A) (A) (A) (A) (A) (A)
                 (A) (A) (A) (A) (A) (A) (A) (A) (A) (A) (A) (A)
                 (A) (A) (A) (A) (A) (A) (A) (A) (A) (A) (A) (A)
                 (A) (A) (A) (A) (A) (A) (A) (A) (A) (A) (A) (A)
                 (A) (A) (A) (A) (A) (A) (A) (A)
       Virtual   (A) (A) (A) (A) (A) (A) (A) (A) (A) (A) (A) (A)
                 (A) (A) (A) (A) (A) (A) (A) (A) (A) (A) (A) (A)
                 (A) (A) (A) (A) (A) (A) (A) (A) (A) (A) (A) (A)
                 (A) (A) (A) (A) (A) (A) (A) (A) (A) (A) (A) (A)
                 (A) (A) (A) (A) (A) (A) (A) (A) (A) (A) (A) (A)
                 (A) (A) (A) (A) (A) (A) (A) (A) (A) (A) (A) (A)
                 (A) (A) (A) (A) (A) (A) (A) (A) (A) (A) (A) (A)
                 (A) (A) (A) (A) (A) (A) (A) (A) (A) (A) (A) (A)
                 (A) (A) (A) (A) (A) (A) (A) (A) (A) (A) (A) (A)
                 (A) (A) (A) (A) (A) (A) (A) (A) (A) (A) (A) (A)
                 (A) (A) (A) (A) (A) (A) (A) (A) (A) (A) (A) (A)
                 (A) (A) (A) (A) (A) (A) (A) (A) (A) (A) (A) (A)
                 (A) (A) (A) (A) (A) (A) (A) (A) (A) (A) (A) (A)
                 (A) (A) (A) (A) (A) (A) (A) (A) (A) (A) (A) (A)
                 (A) (A) (A) (A) (A) (A) (A) (A) (A) (A) (A) (A)
                 (A) (A) (A) (A) (A) (A) (A) (A) (A) (A) (A) (A)
                 (A) (A) (A) (A) (A) (A) (A) (A) (A) (A) (A) (A)
                 (A) (A) (A) (A) (A) (A) (A) (A) (A) (A) (A) (A)
                 (A) (A) (A) (A) (A) (A) (A) (A) (A) (A) (A) (A)
                 (A) (A) (A) (A) (A) (A) (A) (A) (A) (A) (A) (A)
                 (A) (A) (A) (A) (A) (A) (A) (A) (A) (A) (A) (A)
                 (A) (A) (A) (A) (A) (A) (A) (A) (A) (A) (A) (A)
                 (A) (A) (A) (A) (A) (A) (A) (A) (A) (A) (A) (A)
                 (A) (A) (A) (A) (A) (A) (A) (A) (A) (A) (A) (A)
                 (A) (A) (A) (A) (A) (A) (A) (A) (A) (A) (A) (A)
                 (A) (A) (A) (A) (A) (A) (A) (A) (A) (A) (A) (A)
                 (A) (A) (A) (A) (A) (A) (A) (A) (A) (A) (A) (A)
                 (A) (A) (A) (A) (A) (A) (A) (A) (A) (A) (A) (A)
                 (A) (A) (A) (A) (A) (A) (A) (A) (A) (A) (A) (A)
                 (A) (A) (A) (A) (A) (A) (A) (A) (A) (A) (A) (A)
                 (A) (A) (A) (A) (A) (A) (A) (A) (A) (A) (A) (A)
                 (A) (A) (A) (A) (A) (A) (A) (A) (A) (A) (A) (A)
                 (A) (A) (A) (A) (A) (A) (A) (A) (A) (A) (A) (A)
                 (A) (A) (A) (A) (A) (A) (A) (A) (A) (A) (A) (A)
                 (A) (A) (A) (A) (A) (A) (A) (A) (A) (A) (A) (A)
                 (A) (A) (A) (A) (A) (A) (A) (A) (A) (A) (A) (A)
                 (A) (A) (A) (A) (A) (A) (A) (A) (A) (A) (A) (A)
                 (A) (A) (A) (A) (A) (A) (A) (A) (A) (A) (A) (A)
                 (A) (A) (A) (A) (A) (A) (A) (A) (A) (A) (A) (A)
                 (A) (A) (A) (A) (A) (A) (A) (A) (A) (A) (A) (A)
                 (A) (A) (A) (A) (A) (A) (A) (A) (A) (A) (A) (A)
                 (A) (A) (A) (A) (A) (A) (A) (A) (A) (A) (A) (A)
                 (A) (A) (A) (A) (A) (A) (A) (A) (A) (A) (A) (A)
                 (A) (A) (A) (A) (A) (A) (A) (A) (A) (A) (A) (A)
                 (A) (A) (A) (A) (A) (A) (A) (A) (A) (A) (A) (A)
                 (A) (A) (A) (A) (A) (A) (A) (A) (A) (A) (A) (A)
                 (A) (A) (A) (A) (A) (A) (A) (A) (A) (A) (A) (A)
                 (A) (A) (A) (A) (A) (A) (A) (A) (A) (A) (A) (A)
                 (A) (A) (A) (A) (A) (A) (A) (A) (A) (A) (A) (A)
                 (A) (A) (A) (A) (A) (A) (A) (A) (A) (A) (A) (A)
                 (A) (A) (A) (A) (A) (A) (A) (A) (A) (A) (A) (A)
                 (A) (A) (A) (A) (A) (A) (A) (A) (A) (A) (A) (A)
                 (A) (A) (A) (A) (A) (A) (A) (A) (A) (A) (A)
 The electronic state is 1-A.
 Alpha  occ. eigenvalues --  -19.18019 -14.51011 -10.36576 -10.33394 -10.32095
 Alpha  occ. eigenvalues --  -10.31018 -10.30986 -10.29815 -10.29481 -10.29443
 Alpha  occ. eigenvalues --  -10.29373 -10.29348 -10.29341 -10.29294 -10.29280
 Alpha  occ. eigenvalues --  -10.29249 -10.29118 -10.26556 -10.23557  -1.08393
 Alpha  occ. eigenvalues --   -1.06422  -0.98153  -0.96812  -0.91258  -0.86019
 Alpha  occ. eigenvalues --   -0.85670  -0.85335  -0.83622  -0.80552  -0.79973
 Alpha  occ. eigenvalues --   -0.74314  -0.71348  -0.70799  -0.70075  -0.66994
 Alpha  occ. eigenvalues --   -0.65320  -0.62790  -0.61127  -0.59660  -0.57928
 Alpha  occ. eigenvalues --   -0.56770  -0.55596  -0.55022  -0.54239  -0.53671
 Alpha  occ. eigenvalues --   -0.52785  -0.51594  -0.51337  -0.50829  -0.50300
 Alpha  occ. eigenvalues --   -0.49484  -0.48828  -0.47965  -0.47150  -0.46208
 Alpha  occ. eigenvalues --   -0.45163  -0.44246  -0.43834  -0.42996  -0.42627
 Alpha  occ. eigenvalues --   -0.41342  -0.41078  -0.34660  -0.34077  -0.33909
 Alpha  occ. eigenvalues --   -0.33396  -0.30543  -0.26430
 Alpha virt. eigenvalues --    0.02310   0.04045   0.04634   0.05705   0.08993
 Alpha virt. eigenvalues --    0.09751   0.12500   0.13037   0.13231   0.13777
 Alpha virt. eigenvalues --    0.14705   0.15976   0.16479   0.16828   0.17515
 Alpha virt. eigenvalues --    0.17812   0.18072   0.19097   0.19261   0.19766
 Alpha virt. eigenvalues --    0.20013   0.20428   0.21078   0.21542   0.22201
 Alpha virt. eigenvalues --    0.22466   0.23067   0.23437   0.24560   0.24673
 Alpha virt. eigenvalues --    0.25545   0.26762   0.27328   0.27723   0.27838
 Alpha virt. eigenvalues --    0.28705   0.29039   0.29282   0.29772   0.30052
 Alpha virt. eigenvalues --    0.31040   0.31213   0.31972   0.32234   0.32882
 Alpha virt. eigenvalues --    0.33148   0.33701   0.34843   0.35014   0.35229
 Alpha virt. eigenvalues --    0.36208   0.36639   0.36999   0.37428   0.37735
 Alpha virt. eigenvalues --    0.38993   0.39626   0.40246   0.41015   0.41886
 Alpha virt. eigenvalues --    0.41940   0.42706   0.42950   0.43276   0.43727
 Alpha virt. eigenvalues --    0.44353   0.45115   0.45416   0.45883   0.46372
 Alpha virt. eigenvalues --    0.46783   0.46995   0.47193   0.47977   0.48412
 Alpha virt. eigenvalues --    0.48598   0.49183   0.49635   0.49899   0.50061
 Alpha virt. eigenvalues --    0.50678   0.51118   0.51432   0.51702   0.52427
 Alpha virt. eigenvalues --    0.52956   0.53274   0.53520   0.53848   0.54518
 Alpha virt. eigenvalues --    0.54968   0.55223   0.55560   0.56212   0.56674
 Alpha virt. eigenvalues --    0.56983   0.57051   0.57506   0.57830   0.58350
 Alpha virt. eigenvalues --    0.59351   0.59580   0.60103   0.61548   0.62038
 Alpha virt. eigenvalues --    0.62083   0.62671   0.63270   0.64240   0.65054
 Alpha virt. eigenvalues --    0.66411   0.67390   0.68234   0.69283   0.70424
 Alpha virt. eigenvalues --    0.70698   0.71489   0.72351   0.72875   0.73613
 Alpha virt. eigenvalues --    0.73885   0.74345   0.75079   0.76496   0.77132
 Alpha virt. eigenvalues --    0.77630   0.77742   0.78551   0.78871   0.79489
 Alpha virt. eigenvalues --    0.80123   0.81283   0.81977   0.82603   0.83236
 Alpha virt. eigenvalues --    0.83456   0.84052   0.85240   0.86243   0.86715
 Alpha virt. eigenvalues --    0.87387   0.88455   0.89149   0.89288   0.90115
 Alpha virt. eigenvalues --    0.91486   0.92652   0.93467   0.93744   0.94642
 Alpha virt. eigenvalues --    0.95122   0.96909   0.97454   0.98000   0.98598
 Alpha virt. eigenvalues --    0.99570   0.99731   1.00013   1.00408   1.01538
 Alpha virt. eigenvalues --    1.01996   1.03429   1.04611   1.05642   1.07590
 Alpha virt. eigenvalues --    1.08365   1.09032   1.10113   1.10910   1.11729
 Alpha virt. eigenvalues --    1.12152   1.13259   1.14243   1.14855   1.14990
 Alpha virt. eigenvalues --    1.15771   1.17230   1.19371   1.19868   1.20675
 Alpha virt. eigenvalues --    1.21682   1.22675   1.23497   1.24610   1.25257
 Alpha virt. eigenvalues --    1.26126   1.26762   1.27474   1.28407   1.28881
 Alpha virt. eigenvalues --    1.30102   1.31223   1.31644   1.32978   1.33153
 Alpha virt. eigenvalues --    1.33950   1.34197   1.34778   1.35562   1.36445
 Alpha virt. eigenvalues --    1.37094   1.37672   1.38996   1.39486   1.40181
 Alpha virt. eigenvalues --    1.41102   1.42367   1.44015   1.45098   1.45454
 Alpha virt. eigenvalues --    1.47384   1.48622   1.49841   1.50760   1.51142
 Alpha virt. eigenvalues --    1.52334   1.52932   1.53269   1.55312   1.55683
 Alpha virt. eigenvalues --    1.56802   1.57194   1.57886   1.58920   1.59187
 Alpha virt. eigenvalues --    1.59913   1.60448   1.61626   1.62741   1.62930
 Alpha virt. eigenvalues --    1.63435   1.64559   1.65265   1.65903   1.66607
 Alpha virt. eigenvalues --    1.67343   1.67583   1.68212   1.69053   1.69497
 Alpha virt. eigenvalues --    1.70989   1.71599   1.72240   1.72972   1.73970
 Alpha virt. eigenvalues --    1.74477   1.75080   1.75766   1.76341   1.76731
 Alpha virt. eigenvalues --    1.77267   1.78423   1.78757   1.79227   1.79885
 Alpha virt. eigenvalues --    1.80265   1.80591   1.81891   1.82643   1.83619
 Alpha virt. eigenvalues --    1.84723   1.85064   1.85939   1.86590   1.86891
 Alpha virt. eigenvalues --    1.87268   1.89879   1.91878   1.93481   1.95062
 Alpha virt. eigenvalues --    1.95519   1.97191   1.97992   1.99276   1.99351
 Alpha virt. eigenvalues --    2.00412   2.01053   2.02591   2.04235   2.04961
 Alpha virt. eigenvalues --    2.05860   2.06905   2.07069   2.07670   2.08886
 Alpha virt. eigenvalues --    2.09640   2.10759   2.12220   2.12854   2.13325
 Alpha virt. eigenvalues --    2.13793   2.15139   2.15830   2.16880   2.17756
 Alpha virt. eigenvalues --    2.18572   2.19601   2.21070   2.22870   2.24140
 Alpha virt. eigenvalues --    2.24764   2.25487   2.27804   2.28466   2.29323
 Alpha virt. eigenvalues --    2.30124   2.30990   2.31778   2.32186   2.33228
 Alpha virt. eigenvalues --    2.33945   2.34470   2.35267   2.37947   2.38318
 Alpha virt. eigenvalues --    2.38938   2.41236   2.42883   2.43959   2.45820
 Alpha virt. eigenvalues --    2.47200   2.47825   2.48326   2.49222   2.51452
 Alpha virt. eigenvalues --    2.52672   2.53418   2.54705   2.55125   2.56210
 Alpha virt. eigenvalues --    2.57477   2.58278   2.59578   2.60411   2.60613
 Alpha virt. eigenvalues --    2.61033   2.62436   2.63311   2.64012   2.64331
 Alpha virt. eigenvalues --    2.66004   2.66649   2.66932   2.67943   2.69087
 Alpha virt. eigenvalues --    2.69197   2.70126   2.71066   2.71785   2.72352
 Alpha virt. eigenvalues --    2.72996   2.73529   2.74351   2.75026   2.75509
 Alpha virt. eigenvalues --    2.76404   2.77149   2.77360   2.78024   2.78769
 Alpha virt. eigenvalues --    2.79680   2.80368   2.80685   2.82009   2.82170
 Alpha virt. eigenvalues --    2.82998   2.83463   2.83767   2.84508   2.85267
 Alpha virt. eigenvalues --    2.86123   2.86426   2.86847   2.87230   2.88490
 Alpha virt. eigenvalues --    2.88847   2.89961   2.90281   2.90630   2.91872
 Alpha virt. eigenvalues --    2.92723   2.93729   2.94036   2.94253   2.95106
 Alpha virt. eigenvalues --    2.95578   2.96716   2.96947   2.97588   2.98060
 Alpha virt. eigenvalues --    2.98978   2.99746   3.00297   3.00969   3.02481
 Alpha virt. eigenvalues --    3.03544   3.04397   3.05417   3.06908   3.07848
 Alpha virt. eigenvalues --    3.08815   3.09349   3.10993   3.12180   3.13192
 Alpha virt. eigenvalues --    3.14082   3.14860   3.16017   3.16262   3.17570
 Alpha virt. eigenvalues --    3.18051   3.18487   3.19764   3.20182   3.21503
 Alpha virt. eigenvalues --    3.21762   3.22518   3.23311   3.25060   3.25552
 Alpha virt. eigenvalues --    3.25888   3.26196   3.26823   3.27402   3.27664
 Alpha virt. eigenvalues --    3.28581   3.29319   3.29659   3.30544   3.31085
 Alpha virt. eigenvalues --    3.31622   3.32874   3.33341   3.34245   3.34777
 Alpha virt. eigenvalues --    3.35086   3.36088   3.37035   3.37931   3.38740
 Alpha virt. eigenvalues --    3.39145   3.40155   3.40829   3.41459   3.41821
 Alpha virt. eigenvalues --    3.42146   3.42993   3.43506   3.44093   3.44995
 Alpha virt. eigenvalues --    3.45159   3.46715   3.46725   3.47227   3.48586
 Alpha virt. eigenvalues --    3.48644   3.49877   3.50971   3.52470   3.52512
 Alpha virt. eigenvalues --    3.53686   3.54745   3.55022   3.56334   3.56958
 Alpha virt. eigenvalues --    3.57452   3.58220   3.58616   3.59008   3.59619
 Alpha virt. eigenvalues --    3.60645   3.61457   3.61850   3.63067   3.63689
 Alpha virt. eigenvalues --    3.64325   3.65260   3.66504   3.67031   3.67894
 Alpha virt. eigenvalues --    3.68859   3.68962   3.71141   3.71960   3.72844
 Alpha virt. eigenvalues --    3.74464   3.76225   3.78167   3.78621   3.79965
 Alpha virt. eigenvalues --    3.80623   3.81502   3.83080   3.83956   3.84351
 Alpha virt. eigenvalues --    3.85976   3.86930   3.88839   3.89688   3.90435
 Alpha virt. eigenvalues --    3.92434   3.93544   3.95246   3.96724   3.98482
 Alpha virt. eigenvalues --    4.01397   4.01964   4.02361   4.04002   4.05032
 Alpha virt. eigenvalues --    4.05939   4.07269   4.08442   4.09712   4.11983
 Alpha virt. eigenvalues --    4.12532   4.14781   4.15877   4.16948   4.18352
 Alpha virt. eigenvalues --    4.18760   4.20666   4.22617   4.26084   4.26821
 Alpha virt. eigenvalues --    4.27808   4.28831   4.29696   4.30212   4.30305
 Alpha virt. eigenvalues --    4.30807   4.31741   4.32446   4.34160   4.34711
 Alpha virt. eigenvalues --    4.35335   4.36396   4.38446   4.39045   4.39553
 Alpha virt. eigenvalues --    4.40818   4.42784   4.43200   4.44283   4.45711
 Alpha virt. eigenvalues --    4.45986   4.47344   4.47992   4.51174   4.53615
 Alpha virt. eigenvalues --    4.54250   4.56579   4.59225   4.61456   4.64653
 Alpha virt. eigenvalues --    4.65882   4.66868   4.68015   4.69638   4.70546
 Alpha virt. eigenvalues --    4.73896   4.76004   4.78297   4.79879   4.83639
 Alpha virt. eigenvalues --    4.84922   4.86258   4.88043   4.88870   4.91265
 Alpha virt. eigenvalues --    4.91898   4.93725   4.98053   4.99860   5.00902
 Alpha virt. eigenvalues --    5.02278   5.04965   5.06815   5.08903   5.11864
 Alpha virt. eigenvalues --    5.16495   5.16965   5.20311   5.20970   5.25822
 Alpha virt. eigenvalues --    5.27474   5.29245   5.30570   5.33660   5.33865
 Alpha virt. eigenvalues --    5.34746   5.35843   5.38174   5.42119   5.48050
 Alpha virt. eigenvalues --    5.51646   5.52618   5.55521   5.56724   5.62448
 Alpha virt. eigenvalues --    5.64798   5.65370   5.67855   5.68766   5.78395
 Alpha virt. eigenvalues --    5.80298   5.86827   5.93669   6.17747   6.43427
 Alpha virt. eigenvalues --    6.52534   6.63662   6.73969   6.94497   7.16365
 Alpha virt. eigenvalues --    7.19749  22.27975  22.39172  22.50105  22.56921
 Alpha virt. eigenvalues --   22.70017  22.74216  22.74986  22.76936  22.86914
 Alpha virt. eigenvalues --   22.92197  22.95249  22.99048  23.01142  23.08309
 Alpha virt. eigenvalues --   23.35749  23.38798  23.42452  32.39259  44.08357
          Condensed to atoms (all electrons):
               1          2          3          4          5          6
     1  C    7.307043  -0.151262  -0.245790  -0.472964  -0.027432  -0.003767
     2  C   -0.151262   4.830732   0.715501   0.210889  -0.004429   0.006114
     3  O   -0.245790   0.715501   8.170848   0.028844  -0.000246   0.001228
     4  C   -0.472964   0.210889   0.028844   6.419792  -0.022831   0.009992
     5  C   -0.027432  -0.004429  -0.000246  -0.022831   4.912758   0.417359
     6  H   -0.003767   0.006114   0.001228   0.009992   0.417359   0.493734
     7  H   -0.001570   0.000409   0.000032   0.005507   0.403705  -0.018042
     8  H   -0.004297   0.000194   0.000004  -0.004354   0.416081  -0.022918
     9  N   -0.009653  -0.001703   0.000320  -0.033836   0.251630  -0.047883
    10  H    0.009075  -0.000285  -0.000002  -0.008454  -0.014952   0.005555
    11  H   -0.015113   0.000609  -0.000027  -0.013522  -0.017590  -0.002149
    12  C    0.078137  -0.036146  -0.003172  -0.156067   0.012221  -0.010260
    13  C    0.008482   0.000855   0.000035  -0.076909  -0.001983  -0.000717
    14  C   -0.000758   0.000157   0.000001   0.014724   0.000797   0.000027
    15  C   -0.000735  -0.000032  -0.000000  -0.002354  -0.000432  -0.000009
    16  C    0.008278  -0.000725  -0.000036  -0.013569   0.003383  -0.000069
    17  C    0.000902  -0.007796  -0.001169  -0.085086  -0.002105   0.000152
    18  H    0.000630  -0.000200  -0.000002  -0.022839  -0.000125  -0.000008
    19  H    0.000034  -0.000001  -0.000000  -0.000133   0.000001  -0.000000
    20  H   -0.000002  -0.000000  -0.000000   0.000029   0.000002  -0.000000
    21  H    0.000047  -0.000003  -0.000000  -0.000617   0.000047  -0.000005
    22  H    0.005385  -0.000081  -0.000216   0.005028  -0.005612  -0.000378
    23  C   -0.087005  -0.022560   0.000422  -0.169804  -0.000484   0.003496
    24  C    0.007542   0.004550  -0.000113  -0.057073   0.002377  -0.000152
    25  C    0.002216  -0.000587   0.000002   0.001070  -0.000097  -0.000023
    26  C   -0.002102   0.000508   0.000005  -0.003921   0.000025   0.000003
    27  C    0.011334  -0.001673  -0.000240   0.002460  -0.000026  -0.000005
    28  C   -0.038657   0.011546  -0.001715  -0.085247  -0.000215  -0.000037
    29  H    0.000888  -0.000113  -0.000000  -0.023278   0.000976  -0.000026
    30  H    0.000024   0.000001   0.000000  -0.000358  -0.000002  -0.000000
    31  H   -0.000001   0.000000  -0.000000   0.000094  -0.000000   0.000000
    32  H    0.000389  -0.000156  -0.000004  -0.000291  -0.000000  -0.000000
    33  H   -0.029654   0.010836   0.001479   0.005682   0.000008   0.000009
    34  H    0.355016  -0.003842   0.022822  -0.045546  -0.000701   0.001325
    35  C   -0.310003   0.339093  -0.134954   0.094276  -0.001170   0.000934
    36  H    0.040468  -0.054215   0.010009   0.008940   0.000168  -0.000383
    37  H    0.022877  -0.040601   0.009401  -0.008734   0.000424  -0.000220
    38  H    0.009522  -0.025548   0.005962  -0.008554  -0.000047   0.000013
               7          8          9         10         11         12
     1  C   -0.001570  -0.004297  -0.009653   0.009075  -0.015113   0.078137
     2  C    0.000409   0.000194  -0.001703  -0.000285   0.000609  -0.036146
     3  O    0.000032   0.000004   0.000320  -0.000002  -0.000027  -0.003172
     4  C    0.005507  -0.004354  -0.033836  -0.008454  -0.013522  -0.156067
     5  C    0.403705   0.416081   0.251630  -0.014952  -0.017590   0.012221
     6  H   -0.018042  -0.022918  -0.047883   0.005555  -0.002149  -0.010260
     7  H    0.487045  -0.015900  -0.019308  -0.001978  -0.008089   0.000729
     8  H   -0.015900   0.491258  -0.026266  -0.007629   0.005297  -0.000306
     9  N   -0.019308  -0.026266   6.412773   0.350669   0.354440   0.106169
    10  H   -0.001978  -0.007629   0.350669   0.402742  -0.024036  -0.013906
    11  H   -0.008089   0.005297   0.354440  -0.024036   0.418500   0.002314
    12  C    0.000729  -0.000306   0.106169  -0.013906   0.002314   5.598116
    13  C    0.000139   0.000077   0.009860  -0.001958  -0.000109   0.407127
    14  C   -0.000020   0.000240  -0.000904  -0.000173   0.000025  -0.008702
    15  C    0.000005  -0.000145  -0.000192   0.000123   0.000001  -0.091191
    16  C   -0.000011   0.002169   0.001726  -0.000765   0.000008   0.004311
    17  C   -0.000037  -0.000686  -0.035941   0.001007   0.001800   0.229956
    18  H    0.000002  -0.000024   0.000876  -0.000128  -0.000055  -0.046908
    19  H   -0.000000   0.000001   0.000008   0.000002  -0.000001   0.014705
    20  H   -0.000000   0.000001  -0.000001  -0.000001   0.000000  -0.004574
    21  H   -0.000001   0.000039   0.000056  -0.000005  -0.000001   0.015452
    22  H    0.000263  -0.003811  -0.001418   0.000291  -0.000090  -0.080859
    23  C   -0.001674   0.001020  -0.108830   0.005396   0.019890  -0.013259
    24  C    0.000348  -0.000359   0.022007   0.000418  -0.009185  -0.039048
    25  C    0.000004   0.000000   0.002276  -0.000068  -0.000681   0.002900
    26  C    0.000000  -0.000001  -0.000279   0.000068   0.000070   0.000002
    27  C    0.000000   0.000000   0.000760  -0.000099  -0.000209   0.003242
    28  C    0.000028   0.000011   0.008918  -0.001019   0.001870   0.013534
    29  H   -0.000008   0.000031   0.008282   0.001826  -0.000011  -0.001452
    30  H   -0.000000   0.000000   0.000032  -0.000026  -0.000014   0.000010
    31  H   -0.000000  -0.000000  -0.000002   0.000000   0.000001   0.000005
    32  H    0.000000   0.000000   0.000009  -0.000001   0.000000   0.000002
    33  H    0.000001  -0.000001  -0.000045   0.000011   0.000015  -0.000266
    34  H    0.000037  -0.000112  -0.000527  -0.000020  -0.000143  -0.006442
    35  C    0.000216   0.000004  -0.007437   0.000176  -0.000079   0.000266
    36  H   -0.000095  -0.000027  -0.000170   0.000034   0.001651   0.004693
    37  H    0.000004  -0.000005   0.000862  -0.000028  -0.000311   0.000326
    38  H   -0.000007   0.000002  -0.000211   0.000017   0.000159  -0.000400
              13         14         15         16         17         18
     1  C    0.008482  -0.000758  -0.000735   0.008278   0.000902   0.000630
     2  C    0.000855   0.000157  -0.000032  -0.000725  -0.007796  -0.000200
     3  O    0.000035   0.000001  -0.000000  -0.000036  -0.001169  -0.000002
     4  C   -0.076909   0.014724  -0.002354  -0.013569  -0.085086  -0.022839
     5  C   -0.001983   0.000797  -0.000432   0.003383  -0.002105  -0.000125
     6  H   -0.000717   0.000027  -0.000009  -0.000069   0.000152  -0.000008
     7  H    0.000139  -0.000020   0.000005  -0.000011  -0.000037   0.000002
     8  H    0.000077   0.000240  -0.000145   0.002169  -0.000686  -0.000024
     9  N    0.009860  -0.000904  -0.000192   0.001726  -0.035941   0.000876
    10  H   -0.001958  -0.000173   0.000123  -0.000765   0.001007  -0.000128
    11  H   -0.000109   0.000025   0.000001   0.000008   0.001800  -0.000055
    12  C    0.407127  -0.008702  -0.091191   0.004311   0.229956  -0.046908
    13  C    5.136420   0.431416   0.024806  -0.057779  -0.005342   0.443056
    14  C    0.431416   4.994709   0.410609   0.015180  -0.081271  -0.036808
    15  C    0.024806   0.410609   5.000634   0.406641   0.043606   0.008329
    16  C   -0.057779   0.015180   0.406641   4.975184   0.408599  -0.002410
    17  C   -0.005342  -0.081271   0.043606   0.408599   5.419790   0.008483
    18  H    0.443056  -0.036808   0.008329  -0.002410   0.008483   0.486896
    19  H   -0.061064   0.459500  -0.059246   0.012273  -0.004816  -0.006431
    20  H    0.012643  -0.059834   0.457877  -0.060806   0.013862  -0.000063
    21  H   -0.003841   0.011446  -0.058055   0.456221  -0.059789   0.000024
    22  H    0.005331  -0.001982   0.007245  -0.018030   0.446104   0.000004
    23  C   -0.051269  -0.003916   0.001041  -0.003594   0.052756   0.006307
    24  C    0.015116   0.003497  -0.000064  -0.000008  -0.009650  -0.010760
    25  C   -0.000015   0.000004  -0.000010   0.000020  -0.000016   0.000748
    26  C   -0.000159  -0.000102   0.000006  -0.000006   0.000007   0.000338
    27  C    0.000506  -0.000041  -0.000008   0.000012  -0.000280   0.000747
    28  C   -0.003722   0.000091  -0.000006   0.000079  -0.000392   0.001048
    29  H    0.000805   0.000017   0.000021  -0.000058   0.000078  -0.000738
    30  H   -0.000033  -0.000007   0.000000   0.000000  -0.000002  -0.000008
    31  H   -0.000001  -0.000000  -0.000000   0.000000  -0.000000   0.000002
    32  H    0.000017  -0.000002  -0.000000   0.000000  -0.000001  -0.000013
    33  H   -0.000657  -0.000054   0.000005  -0.000050   0.000359  -0.000068
    34  H    0.001123  -0.000066  -0.000101  -0.000262  -0.011609  -0.000035
    35  C    0.000601   0.000020  -0.000004  -0.000023  -0.002105  -0.000026
    36  H   -0.000228  -0.000008   0.000000   0.000014   0.000609   0.000061
    37  H    0.000004  -0.000000  -0.000000   0.000001  -0.000004   0.000001
    38  H   -0.000066  -0.000001   0.000000  -0.000000   0.000101  -0.000000
              19         20         21         22         23         24
     1  C    0.000034  -0.000002   0.000047   0.005385  -0.087005   0.007542
     2  C   -0.000001  -0.000000  -0.000003  -0.000081  -0.022560   0.004550
     3  O   -0.000000  -0.000000  -0.000000  -0.000216   0.000422  -0.000113
     4  C   -0.000133   0.000029  -0.000617   0.005028  -0.169804  -0.057073
     5  C    0.000001   0.000002   0.000047  -0.005612  -0.000484   0.002377
     6  H   -0.000000  -0.000000  -0.000005  -0.000378   0.003496  -0.000152
     7  H   -0.000000  -0.000000  -0.000001   0.000263  -0.001674   0.000348
     8  H    0.000001   0.000001   0.000039  -0.003811   0.001020  -0.000359
     9  N    0.000008  -0.000001   0.000056  -0.001418  -0.108830   0.022007
    10  H    0.000002  -0.000001  -0.000005   0.000291   0.005396   0.000418
    11  H   -0.000001   0.000000  -0.000001  -0.000090   0.019890  -0.009185
    12  C    0.014705  -0.004574   0.015452  -0.080859  -0.013259  -0.039048
    13  C   -0.061064   0.012643  -0.003841   0.005331  -0.051269   0.015116
    14  C    0.459500  -0.059834   0.011446  -0.001982  -0.003916   0.003497
    15  C   -0.059246   0.457877  -0.058055   0.007245   0.001041  -0.000064
    16  C    0.012273  -0.060806   0.456221  -0.018030  -0.003594  -0.000008
    17  C   -0.004816   0.013862  -0.059789   0.446104   0.052756  -0.009650
    18  H   -0.006431  -0.000063   0.000024   0.000004   0.006307  -0.010760
    19  H    0.508976  -0.006851  -0.000046   0.000018   0.000055  -0.000016
    20  H   -0.006851   0.509392  -0.006796  -0.000065   0.000001   0.000000
    21  H   -0.000046  -0.006796   0.507857  -0.006094  -0.000009  -0.000000
    22  H    0.000018  -0.000065  -0.006094   0.467334   0.000876  -0.000211
    23  C    0.000055   0.000001  -0.000009   0.000876   6.204428   0.038165
    24  C   -0.000016   0.000000  -0.000000  -0.000211   0.038165   5.406497
    25  C    0.000022  -0.000000   0.000000  -0.000002   0.073664   0.347788
    26  C   -0.000008  -0.000000  -0.000000   0.000001  -0.150339   0.086866
    27  C    0.000010  -0.000000   0.000000  -0.000007   0.073418  -0.127523
    28  C   -0.000002  -0.000001   0.000001   0.000004   0.304434   0.087621
    29  H   -0.000005   0.000000  -0.000000  -0.000004  -0.075646   0.464879
    30  H    0.000000   0.000000  -0.000000  -0.000000   0.016938  -0.060711
    31  H   -0.000000  -0.000000   0.000000  -0.000000  -0.004679   0.013569
    32  H    0.000000   0.000000  -0.000000  -0.000000   0.017698  -0.005940
    33  H   -0.000002  -0.000000  -0.000001   0.000014  -0.084405   0.016185
    34  H    0.000001  -0.000002   0.000048   0.000547   0.006159   0.001576
    35  C    0.000000  -0.000000   0.000000  -0.000051  -0.070220   0.005401
    36  H    0.000000   0.000000   0.000000   0.000019  -0.013253  -0.016773
    37  H   -0.000000  -0.000000   0.000000  -0.000009   0.002014  -0.000130
    38  H   -0.000000   0.000000  -0.000000   0.000008   0.012122  -0.003247
              25         26         27         28         29         30
     1  C    0.002216  -0.002102   0.011334  -0.038657   0.000888   0.000024
     2  C   -0.000587   0.000508  -0.001673   0.011546  -0.000113   0.000001
     3  O    0.000002   0.000005  -0.000240  -0.001715  -0.000000   0.000000
     4  C    0.001070  -0.003921   0.002460  -0.085247  -0.023278  -0.000358
     5  C   -0.000097   0.000025  -0.000026  -0.000215   0.000976  -0.000002
     6  H   -0.000023   0.000003  -0.000005  -0.000037  -0.000026  -0.000000
     7  H    0.000004   0.000000   0.000000   0.000028  -0.000008  -0.000000
     8  H    0.000000  -0.000001   0.000000   0.000011   0.000031   0.000000
     9  N    0.002276  -0.000279   0.000760   0.008918   0.008282   0.000032
    10  H   -0.000068   0.000068  -0.000099  -0.001019   0.001826  -0.000026
    11  H   -0.000681   0.000070  -0.000209   0.001870  -0.000011  -0.000014
    12  C    0.002900   0.000002   0.003242   0.013534  -0.001452   0.000010
    13  C   -0.000015  -0.000159   0.000506  -0.003722   0.000805  -0.000033
    14  C    0.000004  -0.000102  -0.000041   0.000091   0.000017  -0.000007
    15  C   -0.000010   0.000006  -0.000008  -0.000006   0.000021   0.000000
    16  C    0.000020  -0.000006   0.000012   0.000079  -0.000058   0.000000
    17  C   -0.000016   0.000007  -0.000280  -0.000392   0.000078  -0.000002
    18  H    0.000748   0.000338   0.000747   0.001048  -0.000738  -0.000008
    19  H    0.000022  -0.000008   0.000010  -0.000002  -0.000005   0.000000
    20  H   -0.000000  -0.000000  -0.000000  -0.000001   0.000000   0.000000
    21  H    0.000000  -0.000000   0.000000   0.000001  -0.000000  -0.000000
    22  H   -0.000002   0.000001  -0.000007   0.000004  -0.000004  -0.000000
    23  C    0.073664  -0.150339   0.073418   0.304434  -0.075646   0.016938
    24  C    0.347788   0.086866  -0.127523   0.087621   0.464879  -0.060711
    25  C    5.016523   0.357566   0.064259  -0.098756  -0.024462   0.457510
    26  C    0.357566   5.067824   0.333801   0.072265   0.011790  -0.060605
    27  C    0.064259   0.333801   5.085904   0.340934  -0.004152   0.012528
    28  C   -0.098756   0.072265   0.340934   5.221077   0.008815  -0.004504
    29  H   -0.024462   0.011790  -0.004152   0.008815   0.510227  -0.007206
    30  H    0.457510  -0.060605   0.012528  -0.004504  -0.007206   0.508697
    31  H   -0.060723   0.459483  -0.060048   0.012233  -0.000056  -0.006848
    32  H    0.013717  -0.063794   0.467992  -0.068759   0.000015  -0.000027
    33  H   -0.006151   0.014624  -0.062458   0.486501   0.000097  -0.000001
    34  H   -0.000119   0.000075  -0.000133   0.001211   0.000051  -0.000001
    35  C   -0.001043   0.001102   0.003235   0.008135   0.000367  -0.000039
    36  H    0.003474  -0.001021   0.000506  -0.008453  -0.001194   0.000059
    37  H    0.000089  -0.000125   0.000202   0.000243  -0.000023   0.000003
    38  H    0.000738  -0.000731   0.001304  -0.004214  -0.000012   0.000000
              31         32         33         34         35         36
     1  C   -0.000001   0.000389  -0.029654   0.355016  -0.310003   0.040468
     2  C    0.000000  -0.000156   0.010836  -0.003842   0.339093  -0.054215
     3  O   -0.000000  -0.000004   0.001479   0.022822  -0.134954   0.010009
     4  C    0.000094  -0.000291   0.005682  -0.045546   0.094276   0.008940
     5  C   -0.000000  -0.000000   0.000008  -0.000701  -0.001170   0.000168
     6  H    0.000000  -0.000000   0.000009   0.001325   0.000934  -0.000383
     7  H   -0.000000   0.000000   0.000001   0.000037   0.000216  -0.000095
     8  H   -0.000000   0.000000  -0.000001  -0.000112   0.000004  -0.000027
     9  N   -0.000002   0.000009  -0.000045  -0.000527  -0.007437  -0.000170
    10  H    0.000000  -0.000001   0.000011  -0.000020   0.000176   0.000034
    11  H    0.000001   0.000000   0.000015  -0.000143  -0.000079   0.001651
    12  C    0.000005   0.000002  -0.000266  -0.006442   0.000266   0.004693
    13  C   -0.000001   0.000017  -0.000657   0.001123   0.000601  -0.000228
    14  C   -0.000000  -0.000002  -0.000054  -0.000066   0.000020  -0.000008
    15  C   -0.000000  -0.000000   0.000005  -0.000101  -0.000004   0.000000
    16  C    0.000000   0.000000  -0.000050  -0.000262  -0.000023   0.000014
    17  C   -0.000000  -0.000001   0.000359  -0.011609  -0.002105   0.000609
    18  H    0.000002  -0.000013  -0.000068  -0.000035  -0.000026   0.000061
    19  H   -0.000000   0.000000  -0.000002   0.000001   0.000000   0.000000
    20  H   -0.000000   0.000000  -0.000000  -0.000002  -0.000000   0.000000
    21  H    0.000000  -0.000000  -0.000001   0.000048   0.000000   0.000000
    22  H   -0.000000  -0.000000   0.000014   0.000547  -0.000051   0.000019
    23  C   -0.004679   0.017698  -0.084405   0.006159  -0.070220  -0.013253
    24  C    0.013569  -0.005940   0.016185   0.001576   0.005401  -0.016773
    25  C   -0.060723   0.013717  -0.006151  -0.000119  -0.001043   0.003474
[...]
 ,0.00068492,0.00021565,0.00022056,-0.00002095,-0.00013791,-0.00001703,
 -0.00009163,-0.00003692,0.00000297,-0.00000776,0.00010127,0.00016074,0
 .00003138,-0.00008173,0.00007486,-0.00002443,0.00030211,-0.00003347,0.
 00001178,0.00000144,-0.00001776,0.00001069,0.00000385,-0.00001788,0.00
 001087,0.00000456,-0.00000075,-0.00000821,-0.00000552,-0.00003851,0.00
 021620,0.00002865,0.23305148,-0.08941356,-0.08823940,0.07597416,0.0144
 2643,0.00431380,-0.00528020,-0.00112095,0.00072969,-0.00399699,-0.0166
 8704,-0.01342298,0.01305027,0.00013032,0.00009864,0.00022202,0.0000560
 3,-0.00016104,-0.00034777,-0.00000322,-0.00011344,0.00005598,0.0000118
 1,-0.00001232,0.00003502,-0.00041126,0.00004048,-0.00254312,-0.0001319
 3,-0.00004166,-0.00025810,0.00002090,-0.00007688,0.00003830,-0.0023224
 8,-0.00010957,-0.00081249,0.00046896,-0.00039510,-0.00009709,-0.000515
 23,-0.00002529,0.00019167,0.00006905,0.00054567,0.00002697,0.00049180,
 -0.00019099,-0.00036729,-0.00043493,0.00009206,-0.00027929,-0.00004538
 ,0.00009578,-0.00002459,0.00000717,0.00001312,-0.00000443,-0.00000446,
 0.00004806,0.00004707,-0.00002187,-0.00002423,0.00000167,0.00028228,0.
 00086215,0.00037959,0.00163159,-0.00307756,0.00478266,-0.00094053,-0.0
 0100939,-0.00071633,-0.00030583,-0.00009924,0.00035203,-0.00005061,-0.
 00013177,0.00015148,0.00014955,0.00012508,-0.00015012,0.00019070,0.000
 15313,0.00044911,0.00010879,0.00000515,0.00001320,-0.00013482,-0.00010
 761,0.00002097,-0.00002137,-0.00001751,-0.00001332,-0.00002814,-0.0000
 3847,-0.00003430,-0.00003250,0.00014650,-0.00012291,0.09111398,0.09938
 671,0.11248834,0.07941861,-0.10571320,0.00160504,-0.00099757,0.0023112
 3,-0.00277995,-0.00144328,-0.00303116,0.01241072,0.00381800,-0.0030291
 4,0.00041278,0.00046919,0.00041941,0.00008678,-0.00046197,-0.00088618,
 -0.00014816,-0.00035888,0.00016418,-0.00007685,-0.00008542,-0.00003057
 ,-0.00065566,0.00212484,-0.00344644,0.00003763,-0.00036494,-0.00086594
 ,-0.00014218,-0.00000571,0.00020034,-0.00008178,-0.00098833,-0.0016846
 3,-0.00007789,-0.00014948,0.00016315,-0.00007393,-0.00013900,0.0001343
 1,0.00007779,0.00009821,-0.00009659,-0.00004530,-0.00071253,0.00004561
 ,0.00065703,0.00097577,0.00050126,0.00000894,-0.00007708,-0.00006751,-
 0.00002412,-0.00000030,-0.00001982,0.00002054,-0.00007211,-0.00000072,
 0.00000395,0.00002270,0.00002714,-0.00152954,-0.00035916,0.00018513,-0
 .00174417,-0.00060669,0.00163383,0.00009247,-0.00003763,0.00008987,-0.
 00003771,-0.00013011,-0.00002253,0.00006430,0.00003875,0.00013264,0.00
 029287,-0.00000501,-0.00010090,0.00033140,0.00026562,0.00026954,-0.000
 07267,-0.00002543,-0.00002994,-0.00001139,0.00002275,-0.00000201,-0.00
 001919,0.00004435,0.00000626,0.00003884,0.00002225,0.00001278,-0.00011
 598,0.00024130,-0.00003763,-0.12237573,-0.08311344,0.10900457,-0.01910
 390,-0.00549431,0.01577099,-0.16059859,-0.00898633,0.03488023,0.008897
 30,-0.01056980,0.01324755,-0.00013838,-0.00117264,0.00141960,0.0002562
 1,0.00022018,-0.00000162,0.00000469,-0.00002604,0.00022092,0.00001229,
 -0.00004374,-0.00001358,-0.00000604,-0.00005659,0.00003743,-0.00001494
 ,0.00015837,-0.00166747,0.00004100,-0.00005281,0.00014288,-0.00052712,
 -0.00010763,-0.00004267,0.00018816,0.00000904,-0.00002157,0.00002455,-
 0.00003932,-0.00004364,-0.00013520,-0.00001650,0.00004977,-0.00002702,
 0.00015196,0.00001345,0.00012696,-0.00004609,-0.00008724,-0.00019096,0
 .00001961,-0.00010942,-0.00000969,-0.00002194,-0.00001497,-0.00001001,
 0.00001589,0.00000377,-0.00001164,0.00001172,0.00000829,-0.00001678,-0
 .00000758,-0.00000004,0.00010953,0.00007347,0.00006138,-0.00104556,0.0
 0184833,0.00000232,-0.00002929,-0.00004918,0.00023194,0.00009373,-0.00
 006015,-0.00003618,0.00006453,0.00005398,0.00008248,-0.00026729,0.0000
 0306,0.00000531,-0.00030447,0.00100216,-0.00019434,-0.00001320,-0.0000
 3241,-0.00001238,-0.00001384,0.00003983,-0.00000345,0.00000992,0.00000
 549,-0.00000268,0.00001650,-0.00000755,0.00000465,-0.00006031,-0.00024
 322,0.00011630,-0.00201711,0.00280795,0.00119002,0.47876960,0.00915781
 ,0.01510418,-0.00313574,-0.00844118,-0.08439448,0.00440649,-0.02722994
 ,-0.01919422,0.03576781,-0.00086141,-0.00116731,-0.00039418,0.00027282
 ,0.00036683,0.00015378,0.00003389,-0.00002048,0.00005678,0.00001032,-0
 .00005801,-0.00000801,-0.00006180,-0.00008535,-0.00000914,-0.00044556,
 0.00038404,-0.00097202,-0.00018406,-0.00011117,0.00013416,0.00108471,-
 0.00048047,0.00085494,-0.00016531,0.00001437,-0.00032381,0.00003564,-0
 .00016157,0.00000263,-0.00005789,0.00000392,0.00002654,0.00002277,0.00
 006049,-0.00002589,0.00002229,-0.00014535,0.00001766,0.00021350,0.0001
 9680,0.00004552,0.00001574,0.00005132,-0.00000910,-0.00000545,0.000001
 43,-0.00000274,0.00000754,-0.00001007,-0.00000054,-0.00000199,0.000001
 91,0.00000576,-0.00003490,-0.00018716,0.00000902,0.00122855,-0.0030642
 8,0.00021516,0.00051234,0.00045493,-0.00081530,-0.00030265,-0.00013575
 ,-0.00011958,-0.00011851,-0.00000211,0.00035443,0.00061122,0.00045638,
 -0.00009258,0.00119281,-0.00197653,-0.00011631,-0.00000019,-0.00003410
 ,0.00007101,-0.00000069,-0.00003654,0.00000255,-0.00000529,-0.00001652
 ,0.00001267,-0.00001910,0.00001441,-0.00000977,-0.00011586,0.00009672,
 0.00012582,0.00432655,0.00077150,0.00306954,-0.03145345,0.57848719,0.0
 0077831,0.00493178,0.00887244,0.04211542,0.00367046,-0.10126790,0.0255
 6341,0.03237915,-0.01929752,-0.00039408,-0.00200985,0.00149534,0.00009
 946,0.00002678,-0.00001488,0.00008379,0.00004840,0.00013552,-0.0000063
 1,-0.00001577,0.00000730,0.00001647,0.00003327,0.00000294,0.00043353,0
 .00005208,-0.00133492,0.00011352,-0.00008619,-0.00011303,-0.00088265,-
 0.00004638,-0.00073191,-0.00006759,-0.00000890,-0.00043852,0.00016081,
 -0.00023020,-0.00004139,-0.00013474,0.00000249,0.00007458,0.00003621,0
 .00015523,-0.00000573,0.00012242,-0.00012515,-0.00005411,-0.00009063,0
 .00007817,-0.00006509,0.00000373,0.00006756,-0.00002574,-0.00000004,0.
 00000064,-0.00000065,0.00000536,0.00000270,0.00000173,-0.00000023,-0.0
 0000422,-0.00000005,0.00002660,-0.00004264,0.00004965,0.00014757,-0.00
 130200,0.00011129,0.00065252,-0.00047333,-0.00056579,0.00020238,0.0002
 1684,-0.00005610,-0.00035876,-0.00010360,0.00006654,0.00014407,0.00032
 476,0.00002173,0.00108946,-0.00087344,0.00022879,-0.00005493,0.0000693
 0,0.00000701,-0.00001681,-0.00004389,0.00002272,-0.00000574,-0.0000266
 0,-0.00001444,-0.00002301,-0.00002247,-0.00003378,-0.00001363,0.000042
 66,-0.00012231,-0.00011480,0.00259181,0.00350490,0.03414292,-0.0181281
 7,0.54212449,-0.00079301,0.00159467,-0.00146969,0.01448832,-0.01633162
 ,0.01598688,-0.00571530,-0.00449560,0.00534796,-0.00128400,-0.00000991
 ,0.00192869,0.00011168,-0.00015630,-0.00007884,0.00000457,0.00000728,0
 .00004103,0.00000359,0.00000484,0.00002785,0.00004611,0.00007905,0.000
 01221,-0.00079053,0.00002379,-0.00066744,0.00015846,0.00007621,-0.0000
 6838,-0.00143512,0.00006339,-0.00165672,-0.00000417,0.00006366,-0.0000
 5945,0.00001833,0.00003084,-0.00000844,0.00000297,-0.00000644,0.000001
 56,0.00001156,-0.00000487,-0.00000069,0.00001349,0.00000701,0.00000855
 ,0.00004661,-0.00003403,0.00000684,-0.00001900,0.00000341,0.00000404,0
 .00000578,-0.00000574,-0.00000053,0.00000362,-0.00000194,-0.00000330,0
 .00000926,-0.00000060,-0.00000132,-0.00000708,-0.00000870,-0.00000986,
 -0.00124735,0.00236757,0.00054843,-0.00033964,0.00046744,0.00001674,0.
 00007026,-0.00000367,0.00003411,0.00002287,-0.00000514,-0.00017080,-0.
 00016968,-0.00020933,0.00001951,-0.00017133,0.00035760,0.00023229,0.00
 000740,0.00000609,-0.00001995,-0.00001734,-0.00001373,0.00001229,-0.00
 001138,-0.00001000,-0.00000735,-0.00002177,-0.00000465,-0.00000773,0.0
 0001381,-0.00001098,-0.00003684,0.00039297,-0.00021140,-0.00020675,-0.
 05779997,0.03274989,-0.03438809,0.06135586,-0.00062727,0.00059512,-0.0
 0043322,0.00506087,-0.00632193,0.00164777,-0.00344771,-0.00003205,0.00
 348209,0.00059732,-0.00012774,0.00084559,-0.00011729,-0.00004479,-0.00
 012861,-0.00000461,-0.00000344,0.00003668,-0.00002342,-0.00001042,0.00
 000577,0.00002181,0.00001443,0.00001027,0.00021039,-0.00028209,-0.0002
 0855,0.00015169,0.00000030,-0.00016443,-0.00051133,0.00064892,-0.00046
 767,-0.00007748,-0.00008323,-0.00008532,0.00001343,-0.00004626,-0.0000
 0032,0.00000708,0.00000439,0.00001711,-0.00001088,0.00000259,0.0000035
 6,-0.00000384,-0.00000033,0.00001610,-0.00004984,0.00001483,-0.0000063
 5,0.00002657,0.00000687,-0.00001490,-0.00000350,0.00000337,-0.00000016
 ,-0.00000259,0.00000159,-0.00000397,-0.00000639,-0.00000017,0.00000047
 ,0.00000526,0.00000586,-0.00000388,0.00224624,-0.00271703,-0.00126243,
 0.00081252,-0.00139865,0.00007322,0.00007037,0.00025268,0.00006023,-0.
 00025477,0.00001613,-0.00003689,0.00001563,0.00010201,0.00012451,0.000
 44848,-0.00038460,-0.00024183,-0.00005311,0.00007850,-0.00001102,0.000
 02303,0.00001319,-0.00001054,0.00001673,0.00001538,0.00000128,0.000010
 13,0.00000192,0.00001180,-0.00001322,-0.00000068,0.00001902,-0.0000859
 8,-0.00010527,-0.00014819,0.03183483,-0.15832023,0.13372647,-0.0375951
 5,0.17291028,0.00151022,-0.00139770,0.00077252,-0.01235962,0.00656222,
 -0.00832021,0.00525897,0.00341277,-0.00198837,0.00062566,0.00080660,-0
 .00141513,0.00011880,-0.00006015,0.00005998,-0.00000083,-0.00000332,-0
 .00006897,0.00000312,0.00000505,-0.00001110,-0.00000758,0.00000327,-0.
 00000292,-0.00067499,0.00017641,0.00077494,-0.00003419,0.00007440,0.00
 016420,-0.00058913,-0.00013308,0.00002166,-0.00001108,-0.00007628,-0.0
 0001656,-0.00004410,0.00010484,-0.00000010,-0.00000181,-0.00002888,-0.
 00000907,-0.00000186,-0.00001493,0.00000096,-0.00002997,-0.00001880,-0
 .00000756,0.00001525,0.00003264,0.00001372,-0.00000545,-0.00006453,0.0
 0000938,-0.00000039,0.00000112,-0.00000002,-0.00000351,-0.00000381,0.0
 0000466,-0.00000260,0.00000161,0.00000115,-0.00001394,-0.00001554,0.00
 000803,0.00008335,0.00042531,0.00066346,-0.00066618,0.00041884,0.00064
 111,-0.00013369,-0.00020731,-0.00002708,0.00024993,0.00006531,0.000034
 51,-0.00009803,-0.00006887,-0.00007154,-0.00055929,0.00003268,-0.00061
 112,0.00002190,-0.00004087,-0.00007275,0.00000947,0.00002831,-0.000024
 02,0.00001309,0.00002302,0.00000225,0.00002920,0.00002546,0.00003028,0
 .00005306,0.00000807,0.00003926,-0.00001892,0.00012434,0.00022038,-0.0
 3195283,0.12998345,-0.20089731,0.03999448,-0.14541836,0.21396994,-0.00
 200712,-0.00345641,0.00191636,-0.01628220,0.02529506,0.01148960,0.0029
 8496,-0.00014932,-0.00381100,0.00045515,-0.00033819,0.00053313,0.00003
 687,0.00008788,-0.00006586,0.00000915,0.00001740,0.00006039,-0.0000105
 3,-0.00001233,-0.00001501,-0.00000627,-0.00001109,0.00000508,-0.000135
 33,0.00001465,-0.00018725,-0.00001191,-0.00002971,-0.00003635,0.000070
 64,0.00002651,0.00014289,0.00013941,0.00000529,0.00002357,-0.00005882,
 0.00000397,0.00001106,-0.00000620,0.00001619,-0.00000313,-0.00003180,0
 .00001772,0.00001094,0.00001592,0.00003750,-0.00000722,-0.00012330,-0.
 00002884,-0.00003328,0.00000637,-0.00000352,0.00000096,-0.00000835,0.0
 0000926,0.00000216,-0.00000744,0.00000797,0.00000151,-0.00001199,-0.00
 000244,-0.00000001,0.00004585,0.00006810,-0.00000628,0.00006160,-0.000
 14835,-0.00013087,0.00002060,0.00006236,0.00009516,-0.00003496,0.00001
 649,0.00002440,0.00004561,0.00006535,0.00000372,0.00011072,0.00004130,
 -0.00004851,0.00003295,-0.00012957,-0.00004675,0.00000044,-0.00002363,
 -0.00000292,0.00001295,0.00001337,-0.00000610,0.00000474,0.00000490,0.
 00000177,0.00000868,0.00001099,0.00001037,-0.00002713,-0.00002086,-0.0
 0002775,-0.00134082,-0.00002958,-0.00067977,-0.08918869,0.09663324,0.0
 4348523,-0.00328012,0.00359318,0.00200261,0.09873554,-0.00065246,-0.00
 053446,0.00004763,-0.00441354,0.00543729,0.00564059,-0.00124103,0.0013
 1055,0.00007914,-0.00036582,0.00028852,0.00010435,-0.00001706,-0.00009
 421,0.00002723,-0.00000215,-0.00001196,-0.00000554,0.00001173,0.000018
 04,0.00001117,0.00001459,0.00001460,0.00000367,0.00011958,-0.00004500,
 0.00010108,0.00002203,0.00002298,0.00001250,-0.00017769,-0.00004409,-0
 .00025073,-0.00003749,0.00002836,0.00001859,0.00003683,-0.00004190,0.0
 0000245,0.00001862,0.00002190,-0.00000865,0.00002203,-0.00001593,-0.00
 000299,0.00000349,0.00001442,-0.00000235,0.00001792,-0.00004320,0.0000
 0341,-0.00000093,0.00004535,0.00000405,0.00000605,-0.00000735,0.,0.000
 00698,0.00000046,-0.00000074,0.00000920,0.00000078,-0.00000205,-0.0000
 1233,0.00000945,-0.00000093,0.00011476,-0.00073033,-0.00024010,0.00025
 873,0.00016226,-0.00039449,-0.00005968,-0.00001673,-0.00006117,-0.0001
 1208,-0.00005448,0.00012089,0.00020434,0.00020447,-0.00001528,0.000426
 51,-0.00038539,0.00028610,-0.00000353,0.00002900,0.00002517,-0.0000122
 7,-0.00002683,0.00001678,-0.00001371,-0.00002417,0.00000275,-0.0000243
 9,-0.00001466,-0.00002285,-0.00004935,0.00004701,0.00002707,-0.0001921
 5,-0.00003893,-0.00031218,0.09694229,-0.23465604,-0.08245006,0.0066844
 2,-0.01384138,-0.00794550,-0.10347629,0.25341947,0.00196286,0.00108092
 ,-0.00084222,0.00524648,-0.01474806,-0.00648630,-0.00056177,0.00110516
 ,0.00141382,-0.00016434,0.00058904,-0.00132946,-0.00006455,-0.00005344
 ,0.00007109,-0.00000488,-0.00002545,-0.00005908,0.00000357,0.00001766,
 0.00000147,-0.00000130,-0.00001890,-0.00000144,0.00004522,0.00006282,0
 .00065413,-0.00004619,0.00002974,0.00003511,0.00023538,0.00005927,0.00
 024467,-0.00005548,-0.00001330,0.00000192,0.00000331,0.00004913,-0.000
 00043,0.00000621,-0.00001815,-0.00000154,0.00001938,-0.00001771,-0.000
 00694,-0.00002289,-0.00002824,-0.00000182,0.00005000,0.00003251,0.0000
 0873,-0.00001194,-0.00002234,0.,0.00000471,-0.00000537,-0.00000068,0.0
 0000315,-0.00000608,0.00000186,0.00000679,0.00000242,0.00000065,-0.000
 03180,-0.00004055,0.00001374,0.00000360,0.00042471,0.00017379,-0.00030
 195,0.00015315,0.00020413,-0.00013991,-0.00014563,0.00004101,0.0001082
 4,0.00003482,0.00009006,0.00013356,0.00001944,-0.00006537,-0.00026185,
 -0.00004705,-0.00011487,0.00002453,-0.00002053,0.00000335,0.00001014,-
 0.00000347,-0.00000905,-0.00000378,0.00000264,0.00000851,-0.00000133,0
 .00000685,0.00000840,-0.00000953,0.00008004,0.00009416,0.00060440,0.00
 009911,0.00058217,0.04183648,-0.08082718,-0.08300905,-0.01035805,0.019
 52274,0.01079104,-0.04766493,0.08891598,0.08468384,-0.00195676,0.00085
 310,0.00300609,-0.01934539,-0.01179626,-0.01869507,0.00218032,0.002482
 13,0.00126163,0.00020438,-0.00146630,0.00140658,0.00014908,0.00017936,
 -0.00003517,0.00005173,0.00005323,0.00013464,-0.00001326,-0.00004344,-
 0.00001624,-0.00002287,-0.00000849,-0.00000746,-0.00000957,0.00006037,
 -0.00100003,0.00001620,-0.00008568,-0.00006478,-0.00005907,-0.00005683
 ,0.00008949,0.00012925,0.00001786,-0.00020952,-0.00002467,-0.00008075,
 -0.00000298,-0.00006894,0.00001271,0.00003322,-0.00002312,0.00008171,0
 .00000538,0.00005997,-0.00002033,-0.00000883,-0.00009508,0.00003031,-0
 .00005017,-0.00000075,0.00001970,-0.00001349,-0.00001089,0.00001212,0.
 00000136,-0.00000670,0.00000697,-0.00000074,-0.00001406,-0.00000433,0.
 00000118,0.00005405,0.00001802,0.00000473,-0.00024693,-0.00028009,-0.0
 0014489,0.00009062,0.00019574,-0.00005954,-0.00011913,-0.00008045,0.00
 002467,0.00002837,0.00004861,0.00008615,0.00031451,0.00007524,-0.00004
 946,0.00011309,-0.00006828,-0.00002485,-0.00000682,-0.00002754,0.00003
 333,0.00001321,-0.00000194,0.00000286,-0.00001060,-0.00000784,0.000010
 48,-0.00000250,0.00000756,-0.00000345,-0.00011164,0.00001419,0.0000859
 2,-0.00028512,0.00089978,0.00107927,-0.15708497,-0.07862639,-0.1128711
 4,-0.00368071,-0.00227718,-0.00277910,0.00977482,0.00594386,0.00939848
 ,0.17001996,0.00011321,-0.00010698,0.00018421,-0.00317827,-0.00416130,
 -0.00526453,-0.00010555,0.00058139,0.00214927,0.00024966,-0.00004301,0
 .00060983,-0.00002582,-0.00003966,-0.00006142,0.00000846,0.00000462,0.
 00003198,-0.00001202,-0.00000364,0.00000334,0.00001376,0.00002071,0.00
 000494,-0.00006055,-0.00003765,-0.00012192,0.00005169,0.00000003,-0.00
 012947,-0.00022227,0.00013045,-0.00026583,-0.00004061,-0.00000878,-0.0
 0017044,-0.00001532,0.00001046,0.00000292,0.00000003,-0.00000842,0.000
 01042,-0.00001077,0.00000198,0.00000153,0.00000291,0.00000806,0.000013
 07,-0.00001576,-0.00000227,0.00000021,-0.00000197,-0.00001038,-0.00000
 349,-0.00000070,0.00000201,0.00000162,-0.00000214,0.00000019,-0.000001
 88,-0.00000209,-0.00000079,-0.00000077,-0.00000012,0.00000536,-0.00000
 345,-0.00000068,0.00048961,0.00002810,-0.00022810,-0.00015040,0.000161
 37,0.00011298,0.00012023,0.00009047,0.00001804,0.00005079,-0.00021178,
 -0.00010271,-0.00020535,0.00003907,-0.00004910,-0.00000013,0.00003835,
 -0.00000901,0.00000935,-0.00002211,0.00001214,0.00000047,-0.00000426,0
 .00000099,0.00001124,-0.00000534,0.00000122,0.00001737,0.00000929,0.00
 004751,0.00010090,-0.00006604,-0.00010182,0.00001115,-0.00003743,-0.07
 671091,-0.09220868,-0.07242766,0.01453266,0.00903192,0.01318223,-0.018
 18853,-0.01044787,-0.01624672,0.08391955,0.09682701,0.00067721,-0.0010
 2158,-0.00089199,0.01078614,0.00957447,0.01180292,-0.00039517,-0.00137
 518,-0.00092125,0.00008032,0.00039938,-0.00039438,0.00004341,0.0000497
 6,0.00006332,-0.00000975,-0.00000677,-0.00002628,0.00001327,-0.0000027
 9,-0.00000469,-0.00001603,-0.00002761,-0.00000263,0.00008768,0.0000106
 3,0.00014922,-0.00006731,-0.00000573,0.00013308,0.00029974,-0.00018790
 ,0.00032832,0.00002180,-0.00001743,0.00005903,-0.00002806,-0.00000117,
 0.00001282,0.00003176,0.00001222,-0.00002704,-0.00000730,-0.00002915,-
 0.00000093,-0.00001858,0.00002746,0.00000887,0.00001528,-0.00001030,0.
 00000925,0.00000826,0.00001188,0.00001332,0.,-0.00000020,0.00000115,0.
 00000104,0.00000090,0.00000177,-0.00000007,0.00000088,0.00000003,-0.00
 000244,0.00000947,-0.00001111,0.00012585,-0.00045594,-0.00006874,0.000
 07164,0.00026611,-0.00012265,-0.00016759,-0.00009354,-0.00004741,0.000
 01657,0.00000796,0.00013381,0.00020849,0.00016603,-0.00007649,0.000164
 89,-0.00038812,0.00012365,0.00002007,-0.00002491,0.00001846,0.00000238
 ,-0.00000538,-0.00000209,0.00000202,-0.00000458,0.00000456,-0.00000411
 ,0.00000658,-0.00000210,0.00002346,0.00009653,-0.00006646,-0.00004059,
 -0.00044567,-0.00054381,-0.10926462,-0.07032565,-0.14863676,-0.0150032
 3,-0.01095802,-0.01467961,-0.00704788,-0.00373498,-0.00719941,0.119371
 47,0.07848232,0.16086226\\-0.00004358,0.00002609,-0.00002219,0.0000320
 2,-0.00010079,0.00006863,-0.00001767,0.00005719,-0.00004652,0.00002595
 ,0.00001500,-0.00000269,-0.00000889,-0.00002976,-0.00005842,0.00000258
 ,-0.00000711,0.00001713,-0.00000888,0.00002040,0.00003178,-0.00001244,
 0.00000334,0.00000201,0.00004679,0.00008465,-0.00003888,0.00002239,-0.
 00005546,0.00003904,-0.00004392,-0.00000082,0.00002108,-0.00002445,0.0
 0000390,-0.00001255,0.00001754,0.00002964,0.00000945,0.00002102,-0.000
 01162,-0.00001442,0.00005112,-0.00002609,-0.00000390,0.00007269,-0.000
 01853,-0.00001520,-0.00005244,0.00004180,0.00001537,-0.00002765,-0.000
 02429,0.00000289,0.00000876,0.00002026,-0.00000175,-0.00004389,0.00002
 359,0.00000266,-0.00002425,0.00000200,-0.00000186,-0.00000493,0.000009
 12,-0.00000329,-0.00002138,-0.00004241,-0.00001785,0.00002690,0.000050
 57,0.00000199,-0.00001278,-0.00004478,0.00006067,-0.00001039,-0.000048
 78,0.00005397,-0.00003035,0.00001013,-0.00013144,0.00003586,0.00003197
 ,0.00003949,-0.00000553,-0.00001329,-0.00001659,0.00001575,0.00001882,
 -0.00003410,0.00000594,-0.00000078,-0.00000318,0.00002469,0.00000296,0
 .00005405,-0.00001135,-0.00001647,0.00000849,0.00000388,-0.00000081,-0
 .00000065,-0.00006411,0.00003586,-0.00006920,0.00000910,-0.00002737,0.
 00002753,0.00000762,-0.00003181,0.00000016,0.00003829,0.00001366,0.000
 03827\\\@


 HE THAT WALD REACHE THE SWEITE ROSE
 SULD NOW AND THEN BE SCRATCHED WT THE SCHARPE BREERES.
 -- PROVERBS AND REASONS OF THE YEAR 1585
           AS REPRINTED IN PAISLEY MAGAZINE 1828.
 Job cpu time:       1 days  1 hours 19 minutes 46.2 seconds.
 Elapsed time:       0 days  1 hours  3 minutes 21.3 seconds.
 File lengths (MBytes):  RWF=   1670 Int=      0 D2E=      0 Chk=     47 Scr=      1
 Normal termination of Gaussian 16 at Sat Apr 10 11:15:19 2021.
