 Entering Gaussian System, Link 0=g16
 Initial command:
 /apps/gaussian/16/A.03/g16/l1.exe "/beegfs/scratch/user/q/tla25/Gau-66400.inp" -scrdir="/beegfs/scratch/user/q/tla25/"
 Entering Link 1 = /apps/gaussian/16/A.03/g16/l1.exe PID=     66401.
  
 Copyright (c) 1988,1990,1992,1993,1995,1998,2003,2009,2016,
            Gaussian, Inc.  All Rights Reserved.
  
 This is part of the Gaussian(R) 16 program.  It is based on
 the Gaussian(R) 09 system (copyright 2009, Gaussian, Inc.),
 the Gaussian(R) 03 system (copyright 2003, Gaussian, Inc.),
 the Gaussian(R) 98 system (copyright 1998, Gaussian, Inc.),
 the Gaussian(R) 94 system (copyright 1995, Gaussian, Inc.),
 the Gaussian 92(TM) system (copyright 1992, Gaussian, Inc.),
 the Gaussian 90(TM) system (copyright 1990, Gaussian, Inc.),
 the Gaussian 88(TM) system (copyright 1988, Gaussian, Inc.),
 the Gaussian 86(TM) system (copyright 1986, Carnegie Mellon
 University), and the Gaussian 82(TM) system (copyright 1983,
 Carnegie Mellon University). Gaussian is a federally registered
 trademark of Gaussian, Inc.
  
 This software contains proprietary and confidential information,
 including trade secrets, belonging to Gaussian, Inc.
  
 This software is provided under written license and may be
 used, copied, transmitted, or stored only in accord with that
 written license.
  
 The following legend is applicable only to US Government
 contracts under FAR:
  
                    RESTRICTED RIGHTS LEGEND
  
 Use, reproduction and disclosure by the US Government is
 subject to restrictions as set forth in subparagraphs (a)
 and (c) of the Commercial Computer Software - Restricted
 Rights clause in FAR 52.227-19.
  
 Gaussian, Inc.
 340 Quinnipiac St., Bldg. 40, Wallingford CT 06492
  
  
 ---------------------------------------------------------------
 Warning -- This program may not be used in any manner that
 competes with the business of Gaussian, Inc. or will provide
 assistance to any competitor of Gaussian, Inc.  The licensee
 of this program is prohibited from giving any competitor of
 Gaussian, Inc. access to this program.  By using this program,
 the user acknowledges that Gaussian, Inc. is engaged in the
 business of creating and licensing software in the field of
 computational chemistry and represents and warrants to the
 licensee that it is not a competitor of Gaussian, Inc. and that
 it will not use this program in any manner prohibited above.
 ---------------------------------------------------------------
  

 Cite this work as:
 Gaussian 16, Revision A.03,
 M. J. Frisch, G. W. Trucks, H. B. Schlegel, G. E. Scuseria, 
 M. A. Robb, J. R. Cheeseman, G. Scalmani, V. Barone, 
 G. A. Petersson, H. Nakatsuji, X. Li, M. Caricato, A. V. Marenich, 
 J. Bloino, B. G. Janesko, R. Gomperts, B. Mennucci, H. P. Hratchian, 
 J. V. Ortiz, A. F. Izmaylov, J. L. Sonnenberg, D. Williams-Young, 
 F. Ding, F. Lipparini, F. Egidi, J. Goings, B. Peng, A. Petrone, 
 T. Henderson, D. Ranasinghe, V. G. Zakrzewski, J. Gao, N. Rega, 
 G. Zheng, W. Liang, M. Hada, M. Ehara, K. Toyota, R. Fukuda, 
 J. Hasegawa, M. Ishida, T. Nakajima, Y. Honda, O. Kitao, H. Nakai, 
 T. Vreven, K. Throssell, J. A. Montgomery, Jr., J. E. Peralta, 
 F. Ogliaro, M. J. Bearpark, J. J. Heyd, E. N. Brothers, K. N. Kudin, 
 V. N. Staroverov, T. A. Keith, R. Kobayashi, J. Normand, 
 K. Raghavachari, A. P. Rendell, J. C. Burant, S. S. Iyengar, 
 J. Tomasi, M. Cossi, J. M. Millam, M. Klene, C. Adamo, R. Cammi, 
 J. W. Ochterski, R. L. Martin, K. Morokuma, O. Farkas, 
 J. B. Foresman, and D. J. Fox, Gaussian, Inc., Wallingford CT, 2016.
 
 ******************************************
 Gaussian 16:  ES64L-G16RevA.03 25-Dec-2016
                 7-Feb-2021 
 ******************************************
 %nprocshared=16
 Will use up to   16 processors via shared memory.
 %mem=48GB
 ----------------------------------------------------------------------
 # wB97XD def2tzvp, opt=(ts, noeigen, calcfc, maxcycles=70, maxstep=5),
  freq=noraman, scrf=(iefpcm, solvent=water)
 ----------------------------------------------------------------------
 1/5=1,6=70,8=5,10=4,11=1,18=20,26=3,38=1/1,3;
 2/9=110,12=2,17=6,18=5,40=1/2;
 3/5=44,7=101,11=2,25=1,30=1,70=2201,71=2,72=1,74=-58,140=1/1,2,3;
 4//1;
 5/5=2,38=5,53=1/2;
 8/6=4,10=90,11=11/1;
 11/6=1,8=1,9=11,15=111,16=1/1,2,10;
 10/6=1,13=1/2;
 6/7=2,8=2,9=2,10=2,28=1/1;
 7/10=1,18=20,25=1/1,2,3,16;
 1/5=1,6=70,8=5,10=4,11=1,18=20,26=3/3(2);
 2/9=110/2;
 99//99;
 2/9=110/2;
 3/5=44,7=101,11=2,25=1,30=1,70=2205,71=1,72=1,74=-58/1,2,3;
 4/5=5,16=3,69=1/1;
 5/5=2,38=5,53=1/2;
 7//1,2,3,16;
 1/5=1,6=70,8=5,11=1,18=20,26=3/3(-5);
 2/9=110/2;
 6/7=2,8=2,9=2,10=2,19=2,28=1/1;
 99/9=1/99;
 ------------------------
 2_iteration/TS-173-2.out
 ------------------------
 Symbolic Z-matrix:
 Charge =  0 Multiplicity = 1
 C                     0.85504  -0.61358  -0.77498 
 C                     2.29137  -0.73374  -0.72195 
 O                     2.87836  -1.69855  -1.23377 
 C                     0.01808   0.26626  -0.10408 
 C                     0.14246  -1.20221   2.23962 
 H                     0.61392  -1.30363   3.21563 
 H                    -0.91016  -1.46168   2.31446 
 H                     0.6331   -1.87023   1.52934 
 N                     0.27648   0.16033   1.73757 
 H                    -0.35475   0.8094    2.1944 
 H                     1.22516   0.49662   1.86537 
 C                    -1.46701   0.05687  -0.22096 
 C                    -1.96192  -1.24937  -0.26725 
 C                    -3.32196  -1.49222  -0.35381 
 C                    -4.22134  -0.43681  -0.38872 
 C                    -3.74375   0.86185  -0.33115 
 C                    -2.38107   1.10665  -0.24378 
 H                    -1.2821   -2.08829  -0.22515 
 H                    -3.67823  -2.51373  -0.3892 
 H                    -5.28482  -0.62667  -0.45635 
 H                    -4.43205   1.69692  -0.35502 
 H                    -2.03511   2.12861  -0.20081 
 Cl                    0.46487   2.06648  -0.17008 
 H                     0.37613  -1.42764  -1.2963 
 N                     3.01568   0.20995  -0.0345 
 C                     4.46151   0.17184  -0.04746 
 H                     2.59919   1.12209   0.04823 
 H                     4.8174   -0.78021   0.3437 
 H                     4.87465   0.30087  -1.05226 
 H                     4.83447   0.97076   0.59115 
 
 Add virtual bond connecting atoms N9         and C4         Dist= 3.52D+00.

 GradGradGradGradGradGradGradGradGradGradGradGradGradGradGradGradGradGrad
 Berny optimization.
 Initialization pass.
                           ----------------------------
                           !    Initial Parameters    !
                           ! (Angstroms and Degrees)  !
 --------------------------                            --------------------------
 ! Name  Definition              Value          Derivative Info.                !
 --------------------------------------------------------------------------------
 ! R1    R(1,2)                  1.4423         calculate D2E/DX2 analytically  !
 ! R2    R(1,4)                  1.3873         calculate D2E/DX2 analytically  !
 ! R3    R(1,24)                 1.0788         calculate D2E/DX2 analytically  !
 ! R4    R(2,3)                  1.2399         calculate D2E/DX2 analytically  !
 ! R5    R(2,25)                 1.374          calculate D2E/DX2 analytically  !
 ! R6    R(4,9)                  1.8627         calculate D2E/DX2 analytically  !
 ! R7    R(4,12)                 1.5043         calculate D2E/DX2 analytically  !
 ! R8    R(4,23)                 1.856          calculate D2E/DX2 analytically  !
 ! R9    R(5,6)                  1.0886         calculate D2E/DX2 analytically  !
 ! R10   R(5,7)                  1.0867         calculate D2E/DX2 analytically  !
 ! R11   R(5,8)                  1.0915         calculate D2E/DX2 analytically  !
 ! R12   R(5,9)                  1.4583         calculate D2E/DX2 analytically  !
 ! R13   R(9,10)                 1.0141         calculate D2E/DX2 analytically  !
 ! R14   R(9,11)                 1.0146         calculate D2E/DX2 analytically  !
 ! R15   R(12,13)                1.3976         calculate D2E/DX2 analytically  !
 ! R16   R(12,17)                1.3921         calculate D2E/DX2 analytically  !
 ! R17   R(13,14)                1.3843         calculate D2E/DX2 analytically  !
 ! R18   R(13,18)                1.0806         calculate D2E/DX2 analytically  !
 ! R19   R(14,15)                1.3871         calculate D2E/DX2 analytically  !
 ! R20   R(14,19)                1.0824         calculate D2E/DX2 analytically  !
 ! R21   R(15,16)                1.3849         calculate D2E/DX2 analytically  !
 ! R22   R(15,20)                1.0824         calculate D2E/DX2 analytically  !
 ! R23   R(16,17)                1.3872         calculate D2E/DX2 analytically  !
 ! R24   R(16,21)                1.0824         calculate D2E/DX2 analytically  !
 ! R25   R(17,22)                1.0798         calculate D2E/DX2 analytically  !
 ! R26   R(25,26)                1.4464         calculate D2E/DX2 analytically  !
 ! R27   R(25,27)                1.0061         calculate D2E/DX2 analytically  !
 ! R28   R(26,28)                1.0891         calculate D2E/DX2 analytically  !
 ! R29   R(26,29)                1.0941         calculate D2E/DX2 analytically  !
 ! R30   R(26,30)                1.0887         calculate D2E/DX2 analytically  !
 ! A1    A(2,1,4)              129.4815         calculate D2E/DX2 analytically  !
 ! A2    A(2,1,24)             113.3897         calculate D2E/DX2 analytically  !
 ! A3    A(4,1,24)             116.3869         calculate D2E/DX2 analytically  !
 ! A4    A(1,2,3)              121.4058         calculate D2E/DX2 analytically  !
 ! A5    A(1,2,25)             119.0882         calculate D2E/DX2 analytically  !
 ! A6    A(3,2,25)             119.4337         calculate D2E/DX2 analytically  !
 ! A7    A(1,4,9)              110.9998         calculate D2E/DX2 analytically  !
 ! A8    A(1,4,12)             118.0162         calculate D2E/DX2 analytically  !
 ! A9    A(1,4,23)             116.9173         calculate D2E/DX2 analytically  !
 ! A10   A(9,4,12)             101.8793         calculate D2E/DX2 analytically  !
 ! A11   A(9,4,23)              93.2632         calculate D2E/DX2 analytically  !
 ! A12   A(12,4,23)            111.709          calculate D2E/DX2 analytically  !
 ! A13   A(6,5,7)              109.6028         calculate D2E/DX2 analytically  !
 ! A14   A(6,5,8)              109.3725         calculate D2E/DX2 analytically  !
 ! A15   A(6,5,9)              110.8488         calculate D2E/DX2 analytically  !
 ! A16   A(7,5,8)              109.5166         calculate D2E/DX2 analytically  !
 ! A17   A(7,5,9)              109.6227         calculate D2E/DX2 analytically  !
 ! A18   A(8,5,9)              107.8476         calculate D2E/DX2 analytically  !
 ! A19   A(4,9,5)              112.3817         calculate D2E/DX2 analytically  !
 ! A20   A(4,9,10)             108.8222         calculate D2E/DX2 analytically  !
 ! A21   A(4,9,11)             103.6151         calculate D2E/DX2 analytically  !
 ! A22   A(5,9,10)             112.689          calculate D2E/DX2 analytically  !
 ! A23   A(5,9,11)             110.6256         calculate D2E/DX2 analytically  !
 ! A24   A(10,9,11)            108.2473         calculate D2E/DX2 analytically  !
 ! A25   A(4,12,13)            118.8322         calculate D2E/DX2 analytically  !
 ! A26   A(4,12,17)            122.9906         calculate D2E/DX2 analytically  !
 ! A27   A(13,12,17)           118.1464         calculate D2E/DX2 analytically  !
 ! A28   A(12,13,14)           120.9273         calculate D2E/DX2 analytically  !
 ! A29   A(12,13,18)           120.1005         calculate D2E/DX2 analytically  !
 ! A30   A(14,13,18)           118.9692         calculate D2E/DX2 analytically  !
 ! A31   A(13,14,15)           120.3406         calculate D2E/DX2 analytically  !
 ! A32   A(13,14,19)           119.4054         calculate D2E/DX2 analytically  !
 ! A33   A(15,14,19)           120.2534         calculate D2E/DX2 analytically  !
 ! A34   A(14,15,16)           119.2655         calculate D2E/DX2 analytically  !
 ! A35   A(14,15,20)           120.3425         calculate D2E/DX2 analytically  !
 ! A36   A(16,15,20)           120.3916         calculate D2E/DX2 analytically  !
 ! A37   A(15,16,17)           120.4539         calculate D2E/DX2 analytically  !
 ! A38   A(15,16,21)           120.214          calculate D2E/DX2 analytically  !
 ! A39   A(17,16,21)           119.3321         calculate D2E/DX2 analytically  !
 ! A40   A(12,17,16)           120.8586         calculate D2E/DX2 analytically  !
 ! A41   A(12,17,22)           120.1769         calculate D2E/DX2 analytically  !
 ! A42   A(16,17,22)           118.9629         calculate D2E/DX2 analytically  !
 ! A43   A(2,25,26)            120.2906         calculate D2E/DX2 analytically  !
 ! A44   A(2,25,27)            116.4613         calculate D2E/DX2 analytically  !
 ! A45   A(26,25,27)           116.0027         calculate D2E/DX2 analytically  !
 ! A46   A(25,26,28)           110.2718         calculate D2E/DX2 analytically  !
 ! A47   A(25,26,29)           112.4947         calculate D2E/DX2 analytically  !
 ! A48   A(25,26,30)           108.5335         calculate D2E/DX2 analytically  !
 ! A49   A(28,26,29)           108.0331         calculate D2E/DX2 analytically  !
 ! A50   A(28,26,30)           108.5956         calculate D2E/DX2 analytically  !
 ! A51   A(29,26,30)           108.8339         calculate D2E/DX2 analytically  !
 ! D1    D(4,1,2,3)            169.334          calculate D2E/DX2 analytically  !
 ! D2    D(4,1,2,25)            -7.5554         calculate D2E/DX2 analytically  !
 ! D3    D(24,1,2,3)            -0.3003         calculate D2E/DX2 analytically  !
 ! D4    D(24,1,2,25)         -177.1897         calculate D2E/DX2 analytically  !
 ! D5    D(2,1,4,9)            -55.6001         calculate D2E/DX2 analytically  !
 ! D6    D(2,1,4,12)          -172.6011         calculate D2E/DX2 analytically  !
 ! D7    D(2,1,4,23)            49.6641         calculate D2E/DX2 analytically  !
 ! D8    D(24,1,4,9)           113.7765         calculate D2E/DX2 analytically  !
 ! D9    D(24,1,4,12)           -3.2244         calculate D2E/DX2 analytically  !
 ! D10   D(24,1,4,23)         -140.9592         calculate D2E/DX2 analytically  !
 ! D11   D(1,2,25,26)         -175.3772         calculate D2E/DX2 analytically  !
 ! D12   D(1,2,25,27)          -26.2966         calculate D2E/DX2 analytically  !
 ! D13   D(3,2,25,26)            7.6711         calculate D2E/DX2 analytically  !
 ! D14   D(3,2,25,27)          156.7517         calculate D2E/DX2 analytically  !
 ! D15   D(1,4,9,5)            -54.0265         calculate D2E/DX2 analytically  !
 ! D16   D(1,4,9,10)          -179.5535         calculate D2E/DX2 analytically  !
 ! D17   D(1,4,9,11)            65.4266         calculate D2E/DX2 analytically  !
 ! D18   D(12,4,9,5)            72.4788         calculate D2E/DX2 analytically  !
 ! D19   D(12,4,9,10)          -53.0482         calculate D2E/DX2 analytically  !
 ! D20   D(12,4,9,11)         -168.0681         calculate D2E/DX2 analytically  !
 ! D21   D(23,4,9,5)          -174.5296         calculate D2E/DX2 analytically  !
 ! D22   D(23,4,9,10)           59.9434         calculate D2E/DX2 analytically  !
 ! D23   D(23,4,9,11)          -55.0765         calculate D2E/DX2 analytically  !
 ! D24   D(1,4,12,13)           36.5063         calculate D2E/DX2 analytically  !
 ! D25   D(1,4,12,17)         -145.5547         calculate D2E/DX2 analytically  !
 ! D26   D(9,4,12,13)          -85.2793         calculate D2E/DX2 analytically  !
 ! D27   D(9,4,12,17)           92.6596         calculate D2E/DX2 analytically  !
 ! D28   D(23,4,12,13)         176.3047         calculate D2E/DX2 analytically  !
 ! D29   D(23,4,12,17)          -5.7564         calculate D2E/DX2 analytically  !
 ! D30   D(6,5,9,4)            160.84           calculate D2E/DX2 analytically  !
 ! D31   D(6,5,9,10)           -75.769          calculate D2E/DX2 analytically  !
 ! D32   D(6,5,9,11)            45.5624         calculate D2E/DX2 analytically  !
 ! D33   D(7,5,9,4)            -78.0341         calculate D2E/DX2 analytically  !
 ! D34   D(7,5,9,10)            45.3569         calculate D2E/DX2 analytically  !
 ! D35   D(7,5,9,11)           166.6882         calculate D2E/DX2 analytically  !
 ! D36   D(8,5,9,4)             41.1361         calculate D2E/DX2 analytically  !
 ! D37   D(8,5,9,10)           164.5271         calculate D2E/DX2 analytically  !
 ! D38   D(8,5,9,11)           -74.1415         calculate D2E/DX2 analytically  !
 ! D39   D(4,12,13,14)         179.0003         calculate D2E/DX2 analytically  !
 ! D40   D(4,12,13,18)          -0.3577         calculate D2E/DX2 analytically  !
 ! D41   D(17,12,13,14)          0.9608         calculate D2E/DX2 analytically  !
 ! D42   D(17,12,13,18)       -178.3972         calculate D2E/DX2 analytically  !
 ! D43   D(4,12,17,16)        -178.9418         calculate D2E/DX2 analytically  !
 ! D44   D(4,12,17,22)           1.5179         calculate D2E/DX2 analytically  !
 ! D45   D(13,12,17,16)         -0.9895         calculate D2E/DX2 analytically  !
 ! D46   D(13,12,17,22)        179.4702         calculate D2E/DX2 analytically  !
 ! D47   D(12,13,14,15)         -0.3612         calculate D2E/DX2 analytically  !
 ! D48   D(12,13,14,19)        179.9344         calculate D2E/DX2 analytically  !
 ! D49   D(18,13,14,15)        179.0039         calculate D2E/DX2 analytically  !
 ! D50   D(18,13,14,19)         -0.7004         calculate D2E/DX2 analytically  !
 ! D51   D(13,14,15,16)         -0.2315         calculate D2E/DX2 analytically  !
 ! D52   D(13,14,15,20)       -179.9967         calculate D2E/DX2 analytically  !
 ! D53   D(19,14,15,16)        179.4703         calculate D2E/DX2 analytically  !
 ! D54   D(19,14,15,20)         -0.2949         calculate D2E/DX2 analytically  !
 ! D55   D(14,15,16,17)          0.2025         calculate D2E/DX2 analytically  !
 ! D56   D(14,15,16,21)       -179.8611         calculate D2E/DX2 analytically  !
 ! D57   D(20,15,16,17)        179.9675         calculate D2E/DX2 analytically  !
 ! D58   D(20,15,16,21)         -0.0961         calculate D2E/DX2 analytically  !
 ! D59   D(15,16,17,12)          0.4216         calculate D2E/DX2 analytically  !
 ! D60   D(15,16,17,22)        179.9675         calculate D2E/DX2 analytically  !
 ! D61   D(21,16,17,12)       -179.5153         calculate D2E/DX2 analytically  !
 ! D62   D(21,16,17,22)          0.0305         calculate D2E/DX2 analytically  !
 ! D63   D(2,25,26,28)         -58.5013         calculate D2E/DX2 analytically  !
 ! D64   D(2,25,26,29)          62.1715         calculate D2E/DX2 analytically  !
 ! D65   D(2,25,26,30)        -177.3409         calculate D2E/DX2 analytically  !
 ! D66   D(27,25,26,28)        152.2831         calculate D2E/DX2 analytically  !
 ! D67   D(27,25,26,29)        -87.0441         calculate D2E/DX2 analytically  !
 ! D68   D(27,25,26,30)         33.4435         calculate D2E/DX2 analytically  !
 --------------------------------------------------------------------------------
 Trust Radius=5.00D-02 FncErr=1.00D-07 GrdErr=1.00D-06 EigMax=2.50D+02 EigMin=1.00D-04
 Number of steps in this run=     70 maximum allowed number of steps=    180.
 Search for a saddle point of order  1.
 GradGradGradGradGradGradGradGradGradGradGradGradGradGradGradGradGradGrad

                          Input orientation:                          
 ---------------------------------------------------------------------
 Center     Atomic      Atomic             Coordinates (Angstroms)
 Number     Number       Type             X           Y           Z
 ---------------------------------------------------------------------
      1          6           0        0.855040   -0.613580   -0.774980
      2          6           0        2.291370   -0.733740   -0.721950
      3          8           0        2.878360   -1.698550   -1.233770
      4          6           0        0.018080    0.266260   -0.104080
      5          6           0        0.142460   -1.202210    2.239620
      6          1           0        0.613920   -1.303630    3.215630
      7          1           0       -0.910160   -1.461680    2.314460
      8          1           0        0.633100   -1.870230    1.529340
      9          7           0        0.276480    0.160330    1.737570
     10          1           0       -0.354750    0.809400    2.194400
     11          1           0        1.225160    0.496620    1.865370
     12          6           0       -1.467010    0.056870   -0.220960
     13          6           0       -1.961920   -1.249370   -0.267250
     14          6           0       -3.321960   -1.492220   -0.353810
     15          6           0       -4.221340   -0.436810   -0.388720
     16          6           0       -3.743750    0.861850   -0.331150
     17          6           0       -2.381070    1.106650   -0.243780
     18          1           0       -1.282100   -2.088290   -0.225150
     19          1           0       -3.678230   -2.513730   -0.389200
     20          1           0       -5.284820   -0.626670   -0.456350
     21          1           0       -4.432050    1.696920   -0.355020
     22          1           0       -2.035110    2.128610   -0.200810
     23         17           0        0.464870    2.066480   -0.170080
     24          1           0        0.376130   -1.427640   -1.296300
     25          7           0        3.015680    0.209950   -0.034500
     26          6           0        4.461510    0.171840   -0.047460
     27          1           0        2.599190    1.122090    0.048230
     28          1           0        4.817400   -0.780210    0.343700
     29          1           0        4.874650    0.300870   -1.052260
     30          1           0        4.834470    0.970760    0.591150
 ---------------------------------------------------------------------
                    Distance matrix (angstroms):
                    1          2          3          4          5
     1  C    0.000000
     2  C    1.442323   0.000000
     3  O    2.341254   1.239909   0.000000
     4  C    1.387345   2.559221   3.649367   0.000000
     5  C    3.153105   3.688926   4.449263   2.768538   0.000000
     6  H    4.057003   4.317771   5.008075   3.720222   1.088649
     7  H    3.657847   4.472077   5.196049   3.113959   1.086708
     8  H    2.634069   3.018240   3.564470   2.758786   1.091548
     9  N    2.691946   3.302784   4.365097   1.862704   1.458263
    10  H    3.507945   4.229460   5.338086   2.391028   2.072640
    11  H    2.888076   3.056929   4.142042   2.321388   2.048982
    12  C    2.479588   3.873174   4.794739   1.504326   3.198457
    13  C    2.932112   4.308492   4.956232   2.498831   3.273383
    14  C    4.289140   5.676292   6.265849   3.782920   4.337302
    15  C    5.094122   6.527986   7.260292   4.306740   5.151384
    16  C    4.850026   6.254703   7.157004   3.815449   5.096256
    17  C    3.703211   5.044539   6.042419   2.545917   4.226856
    18  H    2.654138   3.853739   4.298679   2.692403   2.981543
    19  H    4.930510   6.238206   6.660832   4.633826   4.819590
    20  H    6.148136   7.581600   8.269874   5.389078   6.087271
    21  H    5.785162   7.158710   8.108237   4.681177   6.005269
    22  H    4.025201   5.213738   6.313188   2.773679   4.668176
    23  Cl   2.775042   3.388494   4.596936   1.856009   4.073688
    24  H    1.078806   2.116488   2.517629   2.102115   3.550796
    25  N    2.427937   1.373959   2.258202   2.998936   3.926985
    26  C    3.762020   2.446328   2.722509   4.444794   5.076706
    27  H    2.594665   2.032741   3.110863   2.723559   4.029899
    28  H    4.120620   2.742006   2.663013   4.932452   5.062377
    29  H    4.131630   2.802295   2.831219   4.948385   5.957293
    30  H    4.495810   3.331202   3.779142   4.917040   5.427173
                    6          7          8          9         10
     6  H    0.000000
     7  H    1.777613   0.000000
     8  H    1.779038   1.779038   0.000000
     9  N    2.107536   2.090893   2.072127   0.000000
    10  H    2.538923   2.341089   2.932332   1.014119   0.000000
    11  H    2.331891   2.931930   2.462809   1.014602   1.643839
    12  C    4.241625   3.007396   3.344806   2.624176   2.763582
    13  C    4.332245   2.795801   3.216727   3.319185   3.589046
    14  C    5.316730   3.596857   4.396777   4.478120   4.538190
    15  C    6.092820   4.395618   5.412877   5.010795   4.814153
    16  C    6.021482   4.519654   5.484752   4.575367   4.226875
    17  C    5.171744   3.912095   4.592493   3.447295   3.184188
    18  H    4.006189   2.642082   2.606487   3.367155   3.887262
    19  H    5.734256   4.009838   4.762610   5.226230   5.363180
    20  H    6.981178   5.245215   6.364840   6.029984   5.778786
    21  H    6.871292   5.431997   6.475424   5.376830   4.889950
    22  H    5.519936   4.525735   5.109157   3.602068   3.209510
    23  Cl   4.779424   4.528969   4.291155   2.703336   2.800499
    24  H    4.519893   3.833183   2.871613   3.425777   4.209931
    25  N    4.315405   4.870747   3.528375   3.262807   4.084989
    26  C    5.256303   6.091132   4.616608   4.549829   5.350587
    27  H    4.456213   4.911945   3.874684   3.028834   3.664639
    28  H    5.117733   6.095346   4.483554   4.842256   5.718661
    29  H    6.240443   6.921374   5.419325   5.380155   6.176247
    30  H    5.465692   6.472043   5.157803   4.769313   5.433641
                   11         12         13         14         15
    11  H    0.000000
    12  C    3.434229   0.000000
    13  C    4.213553   1.397620   0.000000
    14  C    5.436593   2.420365   1.384261   0.000000
    15  C    5.967962   2.803248   2.404160   1.387081   0.000000
    16  C    5.445012   2.417370   2.763377   2.391666   1.384891
    17  C    4.222031   1.392144   2.393129   2.766136   2.406215
    18  H    4.163939   2.153119   1.080608   2.129057   3.375392
    19  H    6.179687   3.394964   2.135228   1.082434   2.146757
    20  H    7.002286   3.885654   3.386027   2.147676   1.082410
    21  H    6.194746   3.391047   3.845760   3.376820   2.144374
    22  H    4.190686   2.148313   3.379426   3.845751   3.375839
    23  Cl   2.680589   2.788061   4.110184   5.199825   5.317408
    24  H    3.797339   2.599479   2.560703   3.816848   4.789799
    25  N    2.626337   4.489177   5.192330   6.570009   7.274492
    26  C    3.773375   5.932172   6.582446   7.965259   8.710844
    27  H    2.362450   4.212023   5.150444   6.485081   7.010045
    28  H    4.104871   6.365010   6.822943   8.200162   9.074865
    29  H    4.676501   6.400566   7.053947   8.419467   9.149945
    30  H    3.856885   6.418985   7.201163   8.572431   9.216783
                   16         17         18         19         20
    16  C    0.000000
    17  C    1.387248   0.000000
    18  H    3.843733   3.378716   0.000000
    19  H    3.376715   3.848496   2.439129   0.000000
    20  H    2.146221   3.388414   4.267500   2.479241   0.000000
    21  H    1.082436   2.137127   4.926141   4.277731   2.477207
    22  H    2.130990   1.079786   4.283674   4.928149   4.268194
    23  Cl   4.380589   3.004343   4.507444   6.179936   6.355623
    24  H    4.811101   3.890061   2.081717   4.294212   5.778704
    25  N    6.797269   5.474740   4.877414   7.235515   8.353214
    26  C    8.239107   6.908930   6.174854   8.578137   9.787531
    27  H    6.359602   4.988837   5.044372   7.267498   8.091377
    28  H    8.743287   7.464807   6.264069   8.701607  10.135014
    29  H    8.666690   7.344957   6.655657   9.028476  10.219113
    30  H    8.628346   7.264956   6.887421   9.250342  10.298013
                   21         22         23         24         25
    21  H    0.000000
    22  H    2.440381   0.000000
    23  Cl   4.914326   2.500941   0.000000
    24  H    5.810979   4.434083   3.672209   0.000000
    25  N    7.601480   5.405497   3.157803   3.352770   0.000000
    26  C    9.028614   6.786644   4.424684   4.561608   1.446390
    27  H    7.066214   4.748878   2.344110   3.640176   1.006135
    28  H    9.600870   7.464223   5.226101   4.778456   2.090370
    29  H    9.436618   7.197943   4.831333   4.825348   2.121290
    30  H    9.342962   7.011344   4.568750   5.402924   2.068397
                   26         27         28         29         30
    26  C    0.000000
    27  H    2.092933   0.000000
    28  H    1.089065   2.937091   0.000000
    29  H    1.094055   2.657668   1.766555   0.000000
    30  H    1.088667   2.305242   1.768451   1.775152   0.000000
 Stoichiometry    C11H15ClN2O
 Framework group  C1[X(C11H15ClN2O)]
 Deg. of freedom    84
 Full point group                 C1      NOp   1
 Largest Abelian subgroup         C1      NOp   1
 Largest concise Abelian subgroup C1      NOp   1
                         Standard orientation:                         
 ---------------------------------------------------------------------
 Center     Atomic      Atomic             Coordinates (Angstroms)
 Number     Number       Type             X           Y           Z
 ---------------------------------------------------------------------
      1          6           0        0.855039   -0.613582   -0.774980
      2          6           0        2.291369   -0.733743   -0.721950
      3          8           0        2.878358   -1.698554   -1.233770
      4          6           0        0.018080    0.266259   -0.104080
      5          6           0        0.142459   -1.202211    2.239620
      6          1           0        0.613919   -1.303632    3.215630
      7          1           0       -0.910162   -1.461681    2.314460
      8          1           0        0.633098   -1.870232    1.529340
      9          7           0        0.276480    0.160329    1.737570
     10          1           0       -0.354750    0.809399    2.194400
     11          1           0        1.225160    0.496618    1.865370
     12          6           0       -1.467010    0.056870   -0.220960
     13          6           0       -1.961921   -1.249370   -0.267250
     14          6           0       -3.321962   -1.492219   -0.353810
     15          6           0       -4.221341   -0.436808   -0.388720
     16          6           0       -3.743750    0.861852   -0.331150
     17          6           0       -2.381070    1.106651   -0.243780
     18          1           0       -1.282102   -2.088290   -0.225150
     19          1           0       -3.678232   -2.513728   -0.389200
     20          1           0       -5.284821   -0.626667   -0.456350
     21          1           0       -4.432049    1.696922   -0.355020
     22          1           0       -2.035109    2.128610   -0.200810
     23         17           0        0.464871    2.066478   -0.170080
     24          1           0        0.376128   -1.427642   -1.296300
     25          7           0        3.015680    0.209946   -0.034500
     26          6           0        4.461510    0.171835   -0.047460
     27          1           0        2.599190    1.122087    0.048230
     28          1           0        4.817399   -0.780215    0.343700
     29          1           0        4.874650    0.300865   -1.052260
     30          1           0        4.834470    0.970755    0.591150
 ---------------------------------------------------------------------
 Rotational constants (GHZ):           0.9961198           0.3238335           0.2952542
 Standard basis: def2TZVP (5D, 7F)
 There are   636 symmetry adapted cartesian basis functions of A   symmetry.
 There are   561 symmetry adapted basis functions of A   symmetry.
   561 basis functions,   903 primitive gaussians,   636 cartesian basis functions
    60 alpha electrons       60 beta electrons
       nuclear repulsion energy      1125.4353935669 Hartrees.
 NAtoms=   30 NActive=   30 NUniq=   30 SFac= 1.00D+00 NAtFMM=   60 NAOKFM=F Big=F
 Integral buffers will be    131072 words long.
 Raffenetti 2 integral format.
 Two-electron integral symmetry is turned on.
 Nuclear repulsion after empirical dispersion term =     1125.4129200433 Hartrees.
 Force inversion solution in PCM.
 ------------------------------------------------------------------------------
 Polarizable Continuum Model (PCM)
 =================================
 Model                : PCM.
 Atomic radii         : UFF (Universal Force Field).
 Polarization charges : Total charges.
 Charge compensation  : None.
 Solution method      : Matrix inversion.
 Cavity type          : Scaled VdW (van der Waals Surface) (Alpha=1.100).
 Cavity algorithm     : GePol (No added spheres)
                        Default sphere list used, NSphG=   30.
                        Lebedev-Laikov grids with approx.  5.0 points / Ang**2.
                        Smoothing algorithm: York/Karplus (Gamma=1.0000).
                        Polarization charges: spherical gaussians, with
                                              point-specific exponents (IZeta= 3).
                        Self-potential: point-specific (ISelfS= 7).
                        Self-field    : sphere-specific E.n sum rule (ISelfD= 2).
 1st derivatives      : Analytical E(r).r(x)/FMM algorithm (CHGder, D1EAlg=3).
                        Cavity 1st derivative terms included.
 2nd derivatives      : Analytical E(r).r(xy)/FMM algorithm (CHGder, D2EAlg=3).
                        Cavity 2nd derivative terms included.
 Solvent              : Water, Eps=  78.355300 Eps(inf)=   1.777849
 ------------------------------------------------------------------------------
 One-electron integrals computed using PRISM.
   1 Symmetry operations used in ECPInt.
 ECPInt:  NShTT=   25878 NPrTT=   79392 LenC2=   23666 LenP2D=   53287.
 LDataN:  DoStor=T MaxTD1= 6 Len=  172
 NBasis=   561 RedAO= T EigKep=  7.39D-06  NBF=   561
 NBsUse=   561 1.00D-06 EigRej= -1.00D+00 NBFU=   561
 ExpMin= 9.52D-02 ExpMax= 6.95D+04 ExpMxC= 2.37D+03 IAcc=3 IRadAn=         5 AccDes= 0.00D+00
 Harris functional with IExCor= 4639 and IRadAn=       5 diagonalized for initial guess.
 HarFok:  IExCor= 4639 AccDes= 0.00D+00 IRadAn=         5 IDoV= 1 UseB2=F ITyADJ=14
 ICtDFT=  3500011 ScaDFX=  1.000000  1.000000  1.000000  1.000000
 FoFCou: FMM=F IPFlag=           0 FMFlag=      100000 FMFlg1=           0
         NFxFlg=           0 DoJE=T BraDBF=F KetDBF=T FulRan=T
         wScrn=  0.000000 ICntrl=       500 IOpCl=  0 I1Cent=   200000004 NGrid=           0
         NMat0=    1 NMatS0=      1 NMatT0=    0 NMatD0=    1 NMtDS0=    0 NMtDT0=    0
 Petite list used in FoFCou.
 Requested convergence on RMS density matrix=1.00D-08 within 128 cycles.
 Requested convergence on MAX density matrix=1.00D-06.
 Requested convergence on             energy=1.00D-06.
 No special actions if energy rises.
 Inv3:  Mode=1 IEnd=    14493612.
 Iteration    1 A*A^-1 deviation from unit magnitude is 4.44D-15 for   2181.
 Iteration    1 A*A^-1 deviation from orthogonality  is 1.86D-15 for   1999    799.
 Iteration    1 A^-1*A deviation from unit magnitude is 4.22D-15 for   2181.
 Iteration    1 A^-1*A deviation from orthogonality  is 2.77D-15 for   2187    639.
 Error on total polarization charges =  0.01545
 SCF Done:  E(RwB97XD) =  -1073.13753766     A.U. after   15 cycles
            NFock= 15  Conv=0.54D-08     -V/T= 2.0034
 DoSCS=F DFT=T ScalE2(SS,OS)=  1.000000  1.000000
 Range of M.O.s used for correlation:     1   561
 NBasis=   561 NAE=    60 NBE=    60 NFC=     0 NFV=     0
 NROrb=    561 NOA=    60 NOB=    60 NVA=   501 NVB=   501

 **** Warning!!: The largest alpha MO coefficient is  0.43463342D+02

   1 Symmetry operations used in ECPInt.
 ECPInt:  NShTT=   25878 NPrTT=   79392 LenC2=   23666 LenP2D=   53287.
 LDataN:  DoStor=T MaxTD1= 7 Len=  274
 Symmetrizing basis deriv contribution to polar:
 IMax=3 JMax=2 DiffMx= 0.00D+00
 G2DrvN: will do    31 centers at a time, making    1 passes.
 Calling FoFCou, ICntrl=  3107 FMM=F I1Cent=   0 AccDes= 0.00D+00.
 NEqPCM:  Using equilibrium solvation (IEInf=0, Eps=  78.3553, EpsInf=   1.7778)
 G2PCM: DoFxE=T DoFxN=T DoGrad=T DoDP/DQ/DG/TGxP=FFFF NFrqRd=   0 IEInf=0 SqF1=F DoCFld=F IF1Alg=4.
 End of G2Drv F.D. properties file   721 does not exist.
 End of G2Drv F.D. properties file   722 does not exist.
 End of G2Drv F.D. properties file   788 does not exist.
          IDoAtm=111111111111111111111111111111
 NEqPCM:  Using equilibrium solvation (IEInf=0, Eps=  78.3553, EpsInf=   1.7778)
          Differentiating once with respect to nuclear coordinates.
 CalDSu exits because no D1Ps are significant.
          There are    93 degrees of freedom in the 1st order CPHF.  IDoFFX=6 NUNeed=     0.
     87 vectors produced by pass  0 Test12= 3.23D-14 1.08D-09 XBig12= 1.14D-01 1.19D-01.
 AX will form    87 AO Fock derivatives at one time.
     87 vectors produced by pass  1 Test12= 3.23D-14 1.08D-09 XBig12= 2.69D-02 3.09D-02.
     87 vectors produced by pass  2 Test12= 3.23D-14 1.08D-09 XBig12= 6.96D-04 3.00D-03.
     87 vectors produced by pass  3 Test12= 3.23D-14 1.08D-09 XBig12= 9.24D-06 3.47D-04.
     87 vectors produced by pass  4 Test12= 3.23D-14 1.08D-09 XBig12= 9.12D-08 3.13D-05.
     87 vectors produced by pass  5 Test12= 3.23D-14 1.08D-09 XBig12= 7.93D-10 2.93D-06.
     87 vectors produced by pass  6 Test12= 3.23D-14 1.08D-09 XBig12= 6.13D-12 2.46D-07.
     41 vectors produced by pass  7 Test12= 3.23D-14 1.08D-09 XBig12= 4.03D-14 1.93D-08.
      8 vectors produced by pass  8 Test12= 3.23D-14 1.08D-09 XBig12= 1.79D-15 3.95D-09.
      7 vectors produced by pass  9 Test12= 3.23D-14 1.08D-09 XBig12= 1.71D-15 4.21D-09.
      3 vectors produced by pass 10 Test12= 3.23D-14 1.08D-09 XBig12= 5.75D-16 3.09D-09.
      1 vectors produced by pass 11 Test12= 3.23D-14 1.08D-09 XBig12= 1.42D-16 1.27D-09.
 InvSVY:  IOpt=1 It=  1 EMax= 6.11D-16
 Solved reduced A of dimension   669 with    93 vectors.
 End of Minotr F.D. properties file   721 does not exist.
 End of Minotr F.D. properties file   722 does not exist.
 End of Minotr F.D. properties file   788 does not exist.

 **********************************************************************

            Population analysis using the SCF density.

 **********************************************************************

 Orbital symmetries:
       Occupied  (A) (A) (A) (A) (A) (A) (A) (A) (A) (A) (A) (A)
                 (A) (A) (A) (A) (A) (A) (A) (A) (A) (A) (A) (A)
                 (A) (A) (A) (A) (A) (A) (A) (A) (A) (A) (A) (A)
                 (A) (A) (A) (A) (A) (A) (A) (A) (A) (A) (A) (A)
                 (A) (A) (A) (A) (A) (A) (A) (A) (A) (A) (A) (A)
       Virtual   (A) (A) (A) (A) (A) (A) (A) (A) (A) (A) (A) (A)
                 (A) (A) (A) (A) (A) (A) (A) (A) (A) (A) (A) (A)
                 (A) (A) (A) (A) (A) (A) (A) (A) (A) (A) (A) (A)
                 (A) (A) (A) (A) (A) (A) (A) (A) (A) (A) (A) (A)
                 (A) (A) (A) (A) (A) (A) (A) (A) (A) (A) (A) (A)
                 (A) (A) (A) (A) (A) (A) (A) (A) (A) (A) (A) (A)
                 (A) (A) (A) (A) (A) (A) (A) (A) (A) (A) (A) (A)
                 (A) (A) (A) (A) (A) (A) (A) (A) (A) (A) (A) (A)
                 (A) (A) (A) (A) (A) (A) (A) (A) (A) (A) (A) (A)
                 (A) (A) (A) (A) (A) (A) (A) (A) (A) (A) (A) (A)
                 (A) (A) (A) (A) (A) (A) (A) (A) (A) (A) (A) (A)
                 (A) (A) (A) (A) (A) (A) (A) (A) (A) (A) (A) (A)
                 (A) (A) (A) (A) (A) (A) (A) (A) (A) (A) (A) (A)
                 (A) (A) (A) (A) (A) (A) (A) (A) (A) (A) (A) (A)
                 (A) (A) (A) (A) (A) (A) (A) (A) (A) (A) (A) (A)
                 (A) (A) (A) (A) (A) (A) (A) (A) (A) (A) (A) (A)
                 (A) (A) (A) (A) (A) (A) (A) (A) (A) (A) (A) (A)
                 (A) (A) (A) (A) (A) (A) (A) (A) (A) (A) (A) (A)
                 (A) (A) (A) (A) (A) (A) (A) (A) (A) (A) (A) (A)
                 (A) (A) (A) (A) (A) (A) (A) (A) (A) (A) (A) (A)
                 (A) (A) (A) (A) (A) (A) (A) (A) (A) (A) (A) (A)
                 (A) (A) (A) (A) (A) (A) (A) (A) (A) (A) (A) (A)
                 (A) (A) (A) (A) (A) (A) (A) (A) (A) (A) (A) (A)
                 (A) (A) (A) (A) (A) (A) (A) (A) (A) (A) (A) (A)
                 (A) (A) (A) (A) (A) (A) (A) (A) (A) (A) (A) (A)
                 (A) (A) (A) (A) (A) (A) (A) (A) (A) (A) (A) (A)
                 (A) (A) (A) (A) (A) (A) (A) (A) (A) (A) (A) (A)
                 (A) (A) (A) (A) (A) (A) (A) (A) (A) (A) (A) (A)
                 (A) (A) (A) (A) (A) (A) (A) (A) (A) (A) (A) (A)
                 (A) (A) (A) (A) (A) (A) (A) (A) (A) (A) (A) (A)
                 (A) (A) (A) (A) (A) (A) (A) (A) (A) (A) (A) (A)
                 (A) (A) (A) (A) (A) (A) (A) (A) (A) (A) (A) (A)
                 (A) (A) (A) (A) (A) (A) (A) (A) (A) (A) (A) (A)
                 (A) (A) (A) (A) (A) (A) (A) (A) (A) (A) (A) (A)
                 (A) (A) (A) (A) (A) (A) (A) (A) (A) (A) (A) (A)
                 (A) (A) (A) (A) (A) (A) (A) (A) (A) (A) (A) (A)
                 (A) (A) (A) (A) (A) (A) (A) (A) (A) (A) (A) (A)
                 (A) (A) (A) (A) (A) (A) (A) (A) (A) (A) (A) (A)
                 (A) (A) (A) (A) (A) (A) (A) (A) (A) (A) (A) (A)
                 (A) (A) (A) (A) (A) (A) (A) (A) (A) (A) (A) (A)
                 (A) (A) (A) (A) (A) (A) (A) (A) (A) (A) (A) (A)
                 (A) (A) (A) (A) (A) (A) (A) (A) (A)
 The electronic state is 1-A.
 Alpha  occ. eigenvalues -- -101.69385 -19.19405 -14.50164 -14.44034 -10.40834
 Alpha  occ. eigenvalues --  -10.37081 -10.32059 -10.31667 -10.30294 -10.29869
 Alpha  occ. eigenvalues --  -10.29717 -10.29583 -10.29521 -10.29486 -10.25051
 Alpha  occ. eigenvalues --   -9.58021  -7.32593  -7.31831  -7.31804  -1.11980
 Alpha  occ. eigenvalues --   -1.05850  -1.00655  -0.98378  -0.95215  -0.88197
 Alpha  occ. eigenvalues --   -0.85833  -0.84329  -0.79729  -0.79024  -0.73323
 Alpha  occ. eigenvalues --   -0.71068  -0.67743  -0.65780  -0.64544  -0.61704
 Alpha  occ. eigenvalues --   -0.59492  -0.58432  -0.56168  -0.55932  -0.55339
 Alpha  occ. eigenvalues --   -0.53331  -0.52551  -0.52188  -0.51392  -0.49332
 Alpha  occ. eigenvalues --   -0.48729  -0.48423  -0.47041  -0.46416  -0.45745
 Alpha  occ. eigenvalues --   -0.45355  -0.44009  -0.43101  -0.39939  -0.39540
 Alpha  occ. eigenvalues --   -0.34564  -0.34358  -0.33898  -0.32835  -0.27545
 Alpha virt. eigenvalues --    0.02044   0.04641   0.06620   0.08979   0.10262
 Alpha virt. eigenvalues --    0.12983   0.13137   0.14114   0.15434   0.16260
 Alpha virt. eigenvalues --    0.16747   0.17163   0.17798   0.18700   0.18987
 Alpha virt. eigenvalues --    0.19167   0.20210   0.20851   0.21609   0.22181
 Alpha virt. eigenvalues --    0.22493   0.22851   0.23701   0.24589   0.25388
 Alpha virt. eigenvalues --    0.26307   0.27289   0.27973   0.28505   0.28810
 Alpha virt. eigenvalues --    0.29770   0.30129   0.30803   0.30940   0.31684
 Alpha virt. eigenvalues --    0.32425   0.32775   0.33979   0.34897   0.35464
 Alpha virt. eigenvalues --    0.35976   0.36898   0.37893   0.38346   0.38626
 Alpha virt. eigenvalues --    0.39229   0.39699   0.40018   0.41417   0.41665
 Alpha virt. eigenvalues --    0.42642   0.42666   0.43465   0.44652   0.45053
 Alpha virt. eigenvalues --    0.45940   0.46147   0.46900   0.47756   0.48074
 Alpha virt. eigenvalues --    0.48512   0.49060   0.49280   0.50100   0.50606
 Alpha virt. eigenvalues --    0.51283   0.52043   0.52573   0.53023   0.53600
 Alpha virt. eigenvalues --    0.53988   0.54550   0.54954   0.55680   0.56031
 Alpha virt. eigenvalues --    0.56502   0.57088   0.57694   0.58589   0.59129
 Alpha virt. eigenvalues --    0.59422   0.60410   0.60511   0.61744   0.62215
 Alpha virt. eigenvalues --    0.63378   0.64191   0.64625   0.64970   0.66498
 Alpha virt. eigenvalues --    0.67042   0.68533   0.69558   0.70418   0.70960
 Alpha virt. eigenvalues --    0.72061   0.72862   0.73259   0.73584   0.75543
 Alpha virt. eigenvalues --    0.75737   0.76849   0.78400   0.79990   0.80159
 Alpha virt. eigenvalues --    0.81135   0.81479   0.82522   0.83452   0.83657
 Alpha virt. eigenvalues --    0.84709   0.86102   0.86722   0.89727   0.90228
 Alpha virt. eigenvalues --    0.91385   0.92163   0.92943   0.93699   0.94690
 Alpha virt. eigenvalues --    0.95164   0.96910   0.97725   0.98787   0.99382
 Alpha virt. eigenvalues --    0.99901   1.01499   1.02464   1.03773   1.04730
 Alpha virt. eigenvalues --    1.06421   1.07789   1.08793   1.09401   1.10273
 Alpha virt. eigenvalues --    1.12242   1.13513   1.14115   1.14947   1.16068
 Alpha virt. eigenvalues --    1.17584   1.18021   1.20366   1.21667   1.23386
 Alpha virt. eigenvalues --    1.23931   1.25188   1.26326   1.28469   1.30169
 Alpha virt. eigenvalues --    1.30955   1.32089   1.32457   1.33747   1.35017
 Alpha virt. eigenvalues --    1.36375   1.37155   1.38874   1.39858   1.41654
 Alpha virt. eigenvalues --    1.42971   1.43522   1.44953   1.45917   1.47391
 Alpha virt. eigenvalues --    1.48233   1.49600   1.50857   1.52051   1.52518
 Alpha virt. eigenvalues --    1.53009   1.54723   1.55356   1.56357   1.57604
 Alpha virt. eigenvalues --    1.58682   1.59323   1.60777   1.61360   1.61982
 Alpha virt. eigenvalues --    1.62625   1.62926   1.63701   1.64756   1.66302
 Alpha virt. eigenvalues --    1.66369   1.67900   1.68113   1.69262   1.69738
 Alpha virt. eigenvalues --    1.70753   1.71676   1.72410   1.72938   1.74296
 Alpha virt. eigenvalues --    1.75672   1.77302   1.78284   1.79088   1.80123
 Alpha virt. eigenvalues --    1.80678   1.81389   1.83526   1.84525   1.85872
 Alpha virt. eigenvalues --    1.86389   1.88314   1.91112   1.92457   1.92880
 Alpha virt. eigenvalues --    1.93728   1.94765   1.96657   1.97807   1.98111
 Alpha virt. eigenvalues --    1.99150   2.00232   2.00491   2.02504   2.03137
 Alpha virt. eigenvalues --    2.03583   2.04321   2.05430   2.06424   2.06674
 Alpha virt. eigenvalues --    2.07978   2.09069   2.09755   2.11909   2.13097
 Alpha virt. eigenvalues --    2.13835   2.14567   2.15931   2.16699   2.17102
 Alpha virt. eigenvalues --    2.18235   2.18645   2.21346   2.23136   2.23872
 Alpha virt. eigenvalues --    2.24257   2.26565   2.27358   2.28323   2.29880
 Alpha virt. eigenvalues --    2.30818   2.31600   2.32313   2.34015   2.34341
 Alpha virt. eigenvalues --    2.35549   2.36248   2.37879   2.38716   2.39974
 Alpha virt. eigenvalues --    2.41506   2.43263   2.43719   2.44864   2.44897
 Alpha virt. eigenvalues --    2.46421   2.47697   2.49690   2.50670   2.51034
 Alpha virt. eigenvalues --    2.54052   2.54837   2.56253   2.57814   2.58390
 Alpha virt. eigenvalues --    2.59499   2.61291   2.62129   2.62715   2.63991
 Alpha virt. eigenvalues --    2.65778   2.66176   2.66882   2.68399   2.69333
 Alpha virt. eigenvalues --    2.70704   2.71083   2.72001   2.73712   2.74151
 Alpha virt. eigenvalues --    2.75195   2.75775   2.76231   2.77218   2.78257
 Alpha virt. eigenvalues --    2.78759   2.80151   2.82410   2.82731   2.83641
 Alpha virt. eigenvalues --    2.84643   2.85153   2.86434   2.87519   2.87904
 Alpha virt. eigenvalues --    2.88784   2.89228   2.90062   2.91487   2.92411
 Alpha virt. eigenvalues --    2.94006   2.94232   2.95058   2.95823   2.96915
 Alpha virt. eigenvalues --    2.97156   2.99423   3.00541   3.01022   3.03167
 Alpha virt. eigenvalues --    3.05388   3.06460   3.08464   3.10286   3.11555
 Alpha virt. eigenvalues --    3.12847   3.13483   3.14181   3.15237   3.16812
 Alpha virt. eigenvalues --    3.17673   3.18833   3.20460   3.20645   3.21802
 Alpha virt. eigenvalues --    3.23032   3.23387   3.23452   3.25014   3.25412
 Alpha virt. eigenvalues --    3.26000   3.27857   3.28200   3.29385   3.30322
 Alpha virt. eigenvalues --    3.31328   3.31838   3.33751   3.34043   3.35167
 Alpha virt. eigenvalues --    3.36250   3.36860   3.37872   3.38336   3.39769
 Alpha virt. eigenvalues --    3.40300   3.41032   3.42240   3.43705   3.45059
 Alpha virt. eigenvalues --    3.45304   3.46192   3.46571   3.48633   3.49698
 Alpha virt. eigenvalues --    3.49843   3.52888   3.53799   3.54805   3.55895
 Alpha virt. eigenvalues --    3.56681   3.57196   3.58146   3.59769   3.60526
 Alpha virt. eigenvalues --    3.61711   3.62767   3.63825   3.65735   3.65852
 Alpha virt. eigenvalues --    3.67347   3.67998   3.70047   3.71731   3.72469
 Alpha virt. eigenvalues --    3.75051   3.77036   3.77442   3.78600   3.79552
 Alpha virt. eigenvalues --    3.82551   3.83813   3.86828   3.88119   3.89395
 Alpha virt. eigenvalues --    3.90676   3.93314   3.95701   3.96371   3.98053
 Alpha virt. eigenvalues --    4.01176   4.02197   4.04438   4.06021   4.08583
 Alpha virt. eigenvalues --    4.12240   4.14631   4.15905   4.17097   4.18094
 Alpha virt. eigenvalues --    4.22969   4.23415   4.25079   4.26187   4.27250
 Alpha virt. eigenvalues --    4.28765   4.28828   4.30460   4.32428   4.34673
 Alpha virt. eigenvalues --    4.34815   4.35722   4.36579   4.37685   4.38933
 Alpha virt. eigenvalues --    4.42206   4.45311   4.46363   4.48223   4.51385
 Alpha virt. eigenvalues --    4.54085   4.57820   4.59179   4.60259   4.66691
 Alpha virt. eigenvalues --    4.70232   4.73328   4.75646   4.77612   4.81222
 Alpha virt. eigenvalues --    4.83759   4.88321   4.88672   4.90146   4.95259
 Alpha virt. eigenvalues --    4.96884   4.98559   4.98970   5.01380   5.04543
 Alpha virt. eigenvalues --    5.07002   5.10801   5.11489   5.14052   5.15202
 Alpha virt. eigenvalues --    5.19159   5.19505   5.21554   5.23696   5.27013
 Alpha virt. eigenvalues --    5.30790   5.32405   5.35237   5.35426   5.38882
 Alpha virt. eigenvalues --    5.41068   5.43482   5.47815   5.49718   5.53591
 Alpha virt. eigenvalues --    5.54241   5.59204   5.60758   5.62611   5.68774
 Alpha virt. eigenvalues --    5.74804   5.78040   5.88991   5.96097   6.05861
 Alpha virt. eigenvalues --    6.21151   6.43841   6.51863   6.71179   6.84940
 Alpha virt. eigenvalues --    6.93677   7.17955   7.22175  10.88005  11.01650
 Alpha virt. eigenvalues --   11.44762  22.22283  22.49880  22.53058  22.67346
 Alpha virt. eigenvalues --   22.74360  22.79763  22.86577  22.91780  22.96809
 Alpha virt. eigenvalues --   23.36414  23.45664  25.73521  32.25150  32.54227
 Alpha virt. eigenvalues --   44.07278
          Condensed to atoms (all electrons):
               1          2          3          4          5          6
     1  C    6.215527   0.234385  -0.150707   0.061963  -0.021262   0.000488
     2  C    0.234385   4.482486   0.685055   0.068175  -0.000585  -0.000579
     3  O   -0.150707   0.685055   8.114676   0.013665  -0.000979   0.000055
     4  C    0.061963   0.068175   0.013665   5.486586  -0.018571  -0.000055
     5  C   -0.021262  -0.000585  -0.000979  -0.018571   4.889626   0.404396
     6  H    0.000488  -0.000579   0.000055  -0.000055   0.404396   0.487887
     7  H   -0.003164   0.000252   0.000010  -0.004963   0.413070  -0.015931
     8  H    0.006222   0.002756   0.001571   0.013009   0.415832  -0.018398
     9  N    0.000156  -0.004929   0.000525  -0.080639   0.250095  -0.017711
    10  H    0.006441  -0.000283  -0.000008   0.007357  -0.014682  -0.001855
    11  H   -0.030451   0.006913  -0.000131   0.010163  -0.017507  -0.007258
    12  C   -0.075990  -0.001189   0.000043   0.035360   0.007092   0.001048
    13  C   -0.005264   0.002609  -0.001042  -0.067805   0.001620   0.000228
    14  C    0.005762  -0.000027  -0.000019   0.001547   0.003863  -0.000016
    15  C    0.000445  -0.000050   0.000001  -0.003459  -0.000683   0.000015
    16  C   -0.003441   0.000112  -0.000001   0.011039   0.001184  -0.000045
    17  C    0.028491  -0.002308   0.000047  -0.088159  -0.003926   0.000178
    18  H    0.000167   0.000219   0.000250   0.005627  -0.003515   0.000116
    19  H    0.000038   0.000001  -0.000000  -0.000602   0.000023  -0.000000
    20  H   -0.000002  -0.000000  -0.000000   0.000040  -0.000002  -0.000000
    21  H   -0.000020   0.000001  -0.000000  -0.000508   0.000006  -0.000000
    22  H    0.004029  -0.000147   0.000000  -0.011022  -0.000154   0.000011
    23  Cl  -0.117551   0.014362  -0.000271   0.366497   0.002710  -0.000357
    24  H    0.439715  -0.050796   0.019525  -0.065410  -0.001499   0.000024
    25  N   -0.148214   0.300104  -0.151643   0.021012   0.003559  -0.000196
    26  C    0.010359  -0.043352   0.011595  -0.001767   0.000014   0.000004
    27  H   -0.024691  -0.015000   0.004206   0.013100  -0.000447   0.000014
    28  H    0.002837  -0.015130   0.006949  -0.000997  -0.000154   0.000018
    29  H   -0.004216   0.001085   0.004150   0.001360   0.000036  -0.000001
    30  H    0.001624   0.009626   0.002722  -0.000470   0.000015  -0.000004
               7          8          9         10         11         12
     1  C   -0.003164   0.006222   0.000156   0.006441  -0.030451  -0.075990
     2  C    0.000252   0.002756  -0.004929  -0.000283   0.006913  -0.001189
     3  O    0.000010   0.001571   0.000525  -0.000008  -0.000131   0.000043
     4  C   -0.004963   0.013009  -0.080639   0.007357   0.010163   0.035360
     5  C    0.413070   0.415832   0.250095  -0.014682  -0.017507   0.007092
     6  H   -0.015931  -0.018398  -0.017711  -0.001855  -0.007258   0.001048
     7  H    0.496702  -0.023259  -0.026937  -0.007084   0.004804   0.005436
     8  H   -0.023259   0.501064  -0.049755   0.005140  -0.002649  -0.013984
     9  N   -0.026937  -0.049755   6.525504   0.346047   0.348411   0.100135
    10  H   -0.007084   0.005140   0.346047   0.394096  -0.019180  -0.016079
    11  H    0.004804  -0.002649   0.348411  -0.019180   0.409264   0.005672
    12  C    0.005436  -0.013984   0.100135  -0.016079   0.005672   5.549387
    13  C   -0.006124   0.000668  -0.026339   0.000087   0.000686   0.298294
    14  C    0.002465   0.000080   0.000781  -0.000297  -0.000026   0.007067
    15  C   -0.000584   0.000013   0.000057   0.000063  -0.000008  -0.093249
    16  C    0.000788  -0.000001  -0.001625  -0.000056   0.000063   0.014611
    17  C   -0.000562  -0.000142   0.004324   0.001010  -0.000175   0.287445
    18  H   -0.002077   0.000049  -0.001848   0.000054  -0.000123  -0.086336
    19  H    0.000055  -0.000014   0.000054  -0.000003  -0.000001   0.014471
    20  H   -0.000003  -0.000000   0.000000  -0.000000   0.000000  -0.004220
    21  H    0.000005  -0.000000  -0.000004  -0.000009   0.000000   0.015560
    22  H   -0.000059  -0.000008   0.001494   0.000074  -0.000141  -0.065787
    23  Cl   0.000092   0.000911  -0.098811   0.004601   0.002378  -0.111604
    24  H   -0.000120   0.001258   0.001727  -0.000004  -0.000662  -0.014841
    25  N   -0.000003  -0.001344  -0.001866   0.000097   0.013039   0.002706
    26  C   -0.000001  -0.000044   0.000271  -0.000014  -0.000696  -0.000040
    27  H   -0.000005   0.000312  -0.005320   0.000093  -0.000788   0.000681
    28  H    0.000000   0.000098   0.000070  -0.000002  -0.000415   0.000004
    29  H   -0.000000  -0.000020  -0.000027   0.000001   0.000210   0.000026
    30  H   -0.000000  -0.000018   0.000029  -0.000000  -0.000135   0.000006
              13         14         15         16         17         18
     1  C   -0.005264   0.005762   0.000445  -0.003441   0.028491   0.000167
     2  C    0.002609  -0.000027  -0.000050   0.000112  -0.002308   0.000219
     3  O   -0.001042  -0.000019   0.000001  -0.000001   0.000047   0.000250
     4  C   -0.067805   0.001547  -0.003459   0.011039  -0.088159   0.005627
     5  C    0.001620   0.003863  -0.000683   0.001184  -0.003926  -0.003515
     6  H    0.000228  -0.000016   0.000015  -0.000045   0.000178   0.000116
     7  H   -0.006124   0.002465  -0.000584   0.000788  -0.000562  -0.002077
     8  H    0.000668   0.000080   0.000013  -0.000001  -0.000142   0.000049
     9  N   -0.026339   0.000781   0.000057  -0.001625   0.004324  -0.001848
    10  H    0.000087  -0.000297   0.000063  -0.000056   0.001010   0.000054
    11  H    0.000686  -0.000026  -0.000008   0.000063  -0.000175  -0.000123
    12  C    0.298294   0.007067  -0.093249   0.014611   0.287445  -0.086336
    13  C    5.324930   0.395818   0.035019  -0.075343   0.005073   0.455137
    14  C    0.395818   4.988195   0.399870   0.026823  -0.085564  -0.023578
    15  C    0.035019   0.399870   4.996779   0.400016   0.057338   0.008282
    16  C   -0.075343   0.026823   0.400016   5.005793   0.374787  -0.002561
    17  C    0.005073  -0.085564   0.057338   0.374787   5.261972   0.006063
    18  H    0.455137  -0.023578   0.008282  -0.002561   0.006063   0.473371
    19  H   -0.057849   0.454395  -0.056825   0.011106  -0.003953  -0.006276
    20  H    0.013265  -0.059375   0.456147  -0.058946   0.012460  -0.000063
    21  H   -0.003754   0.011433  -0.057786   0.455370  -0.059990   0.000024
    22  H    0.005547  -0.002800   0.008813  -0.034426   0.449824  -0.000041
    23  Cl   0.018915  -0.000972   0.000599  -0.003293   0.000752   0.000654
    24  H   -0.007460   0.002061   0.000047  -0.000363   0.003347   0.001316
    25  N   -0.000071  -0.000005   0.000001  -0.000007  -0.000054   0.000072
    26  C    0.000038   0.000000  -0.000000   0.000000  -0.000019  -0.000001
    27  H   -0.000076   0.000008  -0.000001   0.000009   0.000169   0.000006
    28  H   -0.000004   0.000000   0.000000  -0.000000   0.000002   0.000001
    29  H    0.000004  -0.000000   0.000000  -0.000000  -0.000003  -0.000001
    30  H    0.000001   0.000000  -0.000000   0.000000  -0.000001  -0.000000
              19         20         21         22         23         24
     1  C    0.000038  -0.000002  -0.000020   0.004029  -0.117551   0.439715
     2  C    0.000001  -0.000000   0.000001  -0.000147   0.014362  -0.050796
     3  O   -0.000000  -0.000000  -0.000000   0.000000  -0.000271   0.019525
     4  C   -0.000602   0.000040  -0.000508  -0.011022   0.366497  -0.065410
     5  C    0.000023  -0.000002   0.000006  -0.000154   0.002710  -0.001499
     6  H   -0.000000  -0.000000  -0.000000   0.000011  -0.000357   0.000024
     7  H    0.000055  -0.000003   0.000005  -0.000059   0.000092  -0.000120
     8  H   -0.000014  -0.000000  -0.000000  -0.000008   0.000911   0.001258
     9  N    0.000054   0.000000  -0.000004   0.001494  -0.098811   0.001727
    10  H   -0.000003  -0.000000  -0.000009   0.000074   0.004601  -0.000004
    11  H   -0.000001   0.000000   0.000000  -0.000141   0.002378  -0.000662
    12  C    0.014471  -0.004220   0.015560  -0.065787  -0.111604  -0.014841
    13  C   -0.057849   0.013265  -0.003754   0.005547   0.018915  -0.007460
    14  C    0.454395  -0.059375   0.011433  -0.002800  -0.000972   0.002061
    15  C   -0.056825   0.456147  -0.057786   0.008813   0.000599   0.000047
    16  C    0.011106  -0.058946   0.455370  -0.034426  -0.003293  -0.000363
    17  C   -0.003953   0.012460  -0.059990   0.449824   0.000752   0.003347
    18  H   -0.006276  -0.000063   0.000024  -0.000041   0.000654   0.001316
    19  H    0.505266  -0.006655  -0.000048   0.000026   0.000001   0.000009
    20  H   -0.006655   0.506715  -0.006697  -0.000054   0.000003  -0.000001
    21  H   -0.000048  -0.006697   0.506094  -0.006255  -0.000143  -0.000001
    22  H    0.000026  -0.000054  -0.006255   0.488413   0.014769   0.000051
    23  Cl   0.000001   0.000003  -0.000143   0.014769  17.082975   0.003086
    24  H    0.000009  -0.000001  -0.000001   0.000051   0.003086   0.520475
    25  N    0.000000   0.000000   0.000000   0.000024  -0.031584   0.013523
    26  C    0.000000  -0.000000   0.000000  -0.000002   0.002437  -0.000725
    27  H   -0.000000  -0.000000  -0.000000   0.000034   0.022317  -0.000651
    28  H   -0.000000  -0.000000  -0.000000   0.000000  -0.000061   0.000040
    29  H    0.000000   0.000000   0.000000  -0.000000  -0.000109  -0.000167
    30  H    0.000000   0.000000   0.000000  -0.000000   0.000203  -0.000018
              25         26         27         28         29         30
     1  C   -0.148214   0.010359  -0.024691   0.002837  -0.004216   0.001624
     2  C    0.300104  -0.043352  -0.015000  -0.015130   0.001085   0.009626
     3  O   -0.151643   0.011595   0.004206   0.006949   0.004150   0.002722
     4  C    0.021012  -0.001767   0.013100  -0.000997   0.001360  -0.000470
     5  C    0.003559   0.000014  -0.000447  -0.000154   0.000036   0.000015
     6  H   -0.000196   0.000004   0.000014   0.000018  -0.000001  -0.000004
     7  H   -0.000003  -0.000001  -0.000005   0.000000  -0.000000  -0.000000
     8  H   -0.001344  -0.000044   0.000312   0.000098  -0.000020  -0.000018
     9  N   -0.001866   0.000271  -0.005320   0.000070  -0.000027   0.000029
    10  H    0.000097  -0.000014   0.000093  -0.000002   0.000001  -0.000000
    11  H    0.013039  -0.000696  -0.000788  -0.000415   0.000210  -0.000135
    12  C    0.002706  -0.000040   0.000681   0.000004   0.000026   0.000006
    13  C   -0.000071   0.000038  -0.000076  -0.000004   0.000004   0.000001
    14  C   -0.000005   0.000000   0.000008   0.000000  -0.000000   0.000000
    15  C    0.000001  -0.000000  -0.000001   0.000000   0.000000  -0.000000
    16  C   -0.000007   0.000000   0.000009  -0.000000  -0.000000   0.000000
    17  C   -0.000054  -0.000019   0.000169   0.000002  -0.000003  -0.000001
    18  H    0.000072  -0.000001   0.000006   0.000001  -0.000001  -0.000000
    19  H    0.000000   0.000000  -0.000000  -0.000000   0.000000   0.000000
    20  H    0.000000  -0.000000  -0.000000  -0.000000   0.000000   0.000000
    21  H    0.000000   0.000000  -0.000000  -0.000000   0.000000   0.000000
    22  H    0.000024  -0.000002   0.000034   0.000000  -0.000000  -0.000000
    23  Cl  -0.031584   0.002437   0.022317  -0.000061  -0.000109   0.000203
    24  H    0.013523  -0.000725  -0.000651   0.000040  -0.000167  -0.000018
    25  N    6.829809   0.255899   0.347784  -0.038453  -0.053523  -0.033478
    26  C    0.255899   4.811756  -0.027271   0.416907   0.427423   0.400883
    27  H    0.347784  -0.027271   0.450831   0.007077  -0.003574  -0.007160
    28  H   -0.038453   0.416907   0.007077   0.555014  -0.042356  -0.020806
    29  H   -0.053523   0.427423  -0.003574  -0.042356   0.574191  -0.024762
    30  H   -0.033478   0.400883  -0.007160  -0.020806  -0.024762   0.534777
 Mulliken charges:
               1
     1  C   -0.433678
     2  C    0.326233
     3  O   -0.560245
     4  C    0.227926
     5  C   -0.309176
     6  H    0.167925
     7  H    0.167197
     8  H    0.160650
     9  N   -0.263869
    10  H    0.294394
    11  H    0.278742
    12  C    0.138276
    13  C   -0.306808
    14  C   -0.127490
    15  C   -0.150861
    16  C   -0.121592
    17  C   -0.248426
    18  H    0.175012
    19  H    0.146781
    20  H    0.147389
    21  H    0.146725
    22  H    0.147788
    23  Cl  -0.173508
    24  H    0.136515
    25  N   -0.327189
    26  C   -0.263655
    27  H    0.238342
    28  H    0.129360
    29  H    0.120276
    30  H    0.136965
 Sum of Mulliken charges =  -0.00000
 Mulliken charges with hydrogens summed into heavy atoms:
               1
     1  C   -0.297163
     2  C    0.326233
     3  O   -0.560245
     4  C    0.227926
     5  C    0.186596
     9  N    0.309267
    12  C    0.138276
    13  C   -0.131796
    14  C    0.019292
    15  C   -0.003472
    16  C    0.025133
    17  C   -0.100639
    23  Cl  -0.173508
    25  N   -0.088847
    26  C    0.122946
 APT charges:
               1
     1  C   -0.466073
     2  C   -0.466247
     3  O   -0.001395
     4  C   -0.190352
     5  C   -1.098511
     6  H    0.670016
     7  H    0.360660
     8  H    0.205840
     9  N   -0.686696
    10  H    0.595635
    11  H    0.540036
    12  C   -0.312397
    13  C   -0.576225
    14  C   -0.589895
    15  C   -0.611863
    16  C   -0.644179
    17  C   -0.577174
    18  H    0.282618
    19  H    0.737006
    20  H    1.030539
    21  H    0.827019
    22  H    0.357136
    23  Cl   0.047188
    24  H    0.315099
    25  N    0.006133
    26  C   -1.556797
    27  H    0.230958
    28  H    0.485176
    29  H    0.523263
    30  H    0.563485
 Sum of APT charges =  -0.00000
 APT charges with hydrogens summed into heavy atoms:
               1
     1  C   -0.150974
     2  C   -0.466247
     3  O   -0.001395
     4  C   -0.190352
     5  C    0.138004
     9  N    0.448976
    12  C   -0.312397
    13  C   -0.293608
    14  C    0.147111
    15  C    0.418675
    16  C    0.182839
    17  C   -0.220038
    23  Cl   0.047188
    25  N    0.237091
    26  C    0.015127
 Electronic spatial extent (au):  <R**2>=           3951.5275
 Charge=             -0.0000 electrons
 Dipole moment (field-independent basis, Debye):
    X=             -5.2112    Y=              3.3199    Z=              8.6014  Tot=             10.5907
 Quadrupole moment (field-independent basis, Debye-Ang):
   XX=            -94.0116   YY=            -98.9780   ZZ=            -94.1671
   XY=             15.1212   XZ=             11.2291   YZ=             -4.7878
 Traceless Quadrupole moment (field-independent basis, Debye-Ang):
   XX=              1.7073   YY=             -3.2591   ZZ=              1.5518
   XY=             15.1212   XZ=             11.2291   YZ=             -4.7878
 Octapole moment (field-independent basis, Debye-Ang**2):
  XXX=            -44.4443  YYY=             15.0297  ZZZ=             49.4760  XYY=            -30.5128
  XXY=             47.0213  XXZ=             28.3585  XZZ=              5.8903  YZZ=              9.2304
  YYZ=             18.3801  XYZ=            -17.4374
 Hexadecapole moment (field-independent basis, Debye-Ang**3):
 XXXX=          -3458.5703 YYYY=           -912.6914 ZZZZ=           -529.1091 XXXY=            152.8934
 XXXZ=            115.9861 YYYX=             60.2032 YYYZ=            -19.2628 ZZZX=             10.2447
 ZZZY=            -14.5696 XXYY=           -790.8142 XXZZ=           -797.2417 YYZZ=           -259.2644
 XXYZ=            -45.6368 YYXZ=             41.3009 ZZXY=             21.1752
 N-N= 1.125412920043D+03 E-N=-4.772284153005D+03  KE= 1.069517124500D+03
  Exact polarizability:   0.000   0.000   0.000   0.000   0.000   0.000
 Approx polarizability: 209.901  -6.802 202.322  -4.677  10.388 151.261
   1 Symmetry operations used in ECPInt.
 ECPInt:  NShTT=   25878 NPrTT=   79392 LenC2=   23666 LenP2D=   53287.
 LDataN:  DoStor=T MaxTD1= 8 Len=  415
 D2PCM: PCM CHGder 2nd derivatives, FixD1E=F FixD2E=F DoIter=F DoCFld=F I1PDM=0
 Calling FoFJK, ICntrl=    100147 FMM=F ISym2X=0 I1Cent= 0 IOpClX= 0 NMat=1 NMatS=1 NMatT=0.
 ***** Axes restored to original set *****
 -------------------------------------------------------------------
 Center     Atomic                   Forces (Hartrees/Bohr)
 Number     Number              X              Y              Z
 -------------------------------------------------------------------
      1        6           0.000000728    0.000000839   -0.000001636
      2        6          -0.000003133    0.000003808    0.000004203
      3        8           0.000002840   -0.000005319   -0.000002083
      4        6           0.000006310   -0.000004007    0.000000172
      5        6          -0.000007029    0.000001735    0.000001898
      6        1           0.000001281   -0.000000066    0.000001519
      7        1           0.000003801    0.000001240   -0.000006171
      8        1          -0.000000110    0.000000084   -0.000000486
      9        7          -0.000002049   -0.000000646    0.000001369
     10        1          -0.000002923    0.000003606    0.000003680
     11        1          -0.000001202   -0.000001095   -0.000000836
     12        6          -0.000003312    0.000004978   -0.000000611
     13        6           0.000006554   -0.000002226    0.000005683
     14        6          -0.000007993   -0.000000380    0.000001276
     15        6           0.000000326    0.000001993   -0.000000665
     16        6           0.000005456   -0.000002748    0.000001124
     17        6          -0.000000603    0.000002212   -0.000001140
     18        1          -0.000003463   -0.000000437   -0.000000729
     19        1           0.000000110    0.000003133    0.000000451
     20        1           0.000000857    0.000000772    0.000000340
     21        1          -0.000000797    0.000002762   -0.000001150
     22        1          -0.000000152   -0.000002816   -0.000000538
     23       17           0.000001369    0.000001664   -0.000000190
     24        1           0.000000646   -0.000000299    0.000000346
     25        7           0.000003143   -0.000003668    0.000001360
     26        6          -0.000002453    0.000001105   -0.000004039
     27        1           0.000001228    0.000000177   -0.000004881
     28        1          -0.000000207   -0.000003309   -0.000000002
     29        1           0.000000096   -0.000000413    0.000001580
     30        1           0.000000683   -0.000002678    0.000000158
 -------------------------------------------------------------------
 Cartesian Forces:  Max     0.000007993 RMS     0.000002741
 FormGI is forming the generalized inverse of G from B-inverse, IUseBI=4.

 GradGradGradGradGradGradGradGradGradGradGradGradGradGradGradGradGradGrad
 Berny optimization.
 Internal  Forces:  Max     0.000014816 RMS     0.000002942
 Search for a saddle point.
 Step number   1 out of a maximum of   70
 All quantities printed in internal units (Hartrees-Bohrs-Radians)
 Swapping is turned off.
 Second derivative matrix not updated -- analytic derivatives used.
 ITU=  0
     Eigenvalues ---   -0.03393   0.00140   0.00193   0.00223   0.00343
     Eigenvalues ---    0.00515   0.00804   0.01070   0.01567   0.01634
     Eigenvalues ---    0.01784   0.01850   0.02248   0.02423   0.02544
     Eigenvalues ---    0.02622   0.02757   0.02884   0.02965   0.03305
     Eigenvalues ---    0.03717   0.04656   0.04835   0.05365   0.05697
     Eigenvalues ---    0.05942   0.06051   0.06143   0.08411   0.08922
     Eigenvalues ---    0.10447   0.10948   0.11657   0.11714   0.12005
     Eigenvalues ---    0.12240   0.12379   0.12818   0.13018   0.13438
     Eigenvalues ---    0.15181   0.16884   0.17078   0.17292   0.17617
     Eigenvalues ---    0.18268   0.19009   0.19269   0.19414   0.19611
     Eigenvalues ---    0.19852   0.21026   0.23973   0.25444   0.26390
     Eigenvalues ---    0.31108   0.32862   0.33162   0.33868   0.34246
     Eigenvalues ---    0.34498   0.34645   0.34841   0.35362   0.36298
     Eigenvalues ---    0.36355   0.36525   0.36869   0.36891   0.37503
     Eigenvalues ---    0.38556   0.38717   0.41749   0.43149   0.43834
     Eigenvalues ---    0.45162   0.45361   0.45816   0.47172   0.48220
     Eigenvalues ---    0.48496   0.52094   0.57563   0.73718
 Eigenvectors required to have negative eigenvalues:
                          R6        R8        D10       D7        D8
   1                    0.83087  -0.22553  -0.21746  -0.18933  -0.14406
                          D29       D5        D28       A10       D24
   1                    0.11966  -0.11593   0.11391  -0.10495  -0.09225
 RFO step:  Lambda0=1.915978695D-10 Lambda=-1.83029841D-08.
 Linear search not attempted -- option 19 set.
 Iteration  1 RMS(Cart)=  0.00038694 RMS(Int)=  0.00000010
 Iteration  2 RMS(Cart)=  0.00000011 RMS(Int)=  0.00000000
 Variable       Old X    -DE/DX   Delta X   Delta X   Delta X     New X
                                 (Linear)    (Quad)   (Total)
    R1        2.72559   0.00000   0.00000  -0.00001  -0.00001   2.72559
    R2        2.62170   0.00000   0.00000   0.00001   0.00001   2.62171
    R3        2.03865  -0.00000   0.00000   0.00000   0.00000   2.03865
    R4        2.34309   0.00001   0.00000   0.00001   0.00001   2.34310
    R5        2.59641  -0.00000   0.00000   0.00001   0.00001   2.59641
    R6        3.52000  -0.00000   0.00000  -0.00011  -0.00011   3.51989
    R7        2.84276   0.00000   0.00000   0.00002   0.00002   2.84278
    R8        3.50735   0.00000   0.00000   0.00003   0.00003   3.50738
    R9        2.05725   0.00000   0.00000   0.00000   0.00000   2.05725
   R10        2.05358  -0.00000   0.00000  -0.00002  -0.00002   2.05357
   R11        2.06273   0.00000   0.00000  -0.00000  -0.00000   2.06272
   R12        2.75572  -0.00000   0.00000   0.00000   0.00000   2.75572
   R13        1.91641   0.00001   0.00000   0.00002   0.00002   1.91642
   R14        1.91732  -0.00000   0.00000  -0.00000  -0.00000   1.91732
   R15        2.64112   0.00000   0.00000   0.00001   0.00001   2.64113
   R16        2.63077  -0.00000   0.00000  -0.00001  -0.00001   2.63076
   R17        2.61587   0.00000   0.00000   0.00001   0.00001   2.61589
   R18        2.04205  -0.00000   0.00000  -0.00000  -0.00000   2.04205
   R19        2.62120  -0.00000   0.00000  -0.00000  -0.00000   2.62120
   R20        2.04550  -0.00000   0.00000  -0.00001  -0.00001   2.04550
   R21        2.61707  -0.00000   0.00000  -0.00000  -0.00000   2.61706
   R22        2.04546  -0.00000   0.00000  -0.00000  -0.00000   2.04546
   R23        2.62152  -0.00000   0.00000  -0.00001  -0.00001   2.62151
   R24        2.04551   0.00000   0.00000   0.00001   0.00001   2.04551
   R25        2.04050  -0.00000   0.00000  -0.00001  -0.00001   2.04049
   R26        2.73328  -0.00000   0.00000  -0.00001  -0.00001   2.73327
   R27        1.90132   0.00000   0.00000   0.00001   0.00001   1.90133
   R28        2.05803   0.00000   0.00000  -0.00001  -0.00001   2.05803
   R29        2.06746  -0.00000   0.00000   0.00000   0.00000   2.06747
   R30        2.05728  -0.00000   0.00000   0.00000   0.00000   2.05728
    A1        2.25988   0.00001   0.00000   0.00003   0.00003   2.25991
    A2        1.97902  -0.00000   0.00000   0.00000   0.00000   1.97902
    A3        2.03133  -0.00000   0.00000  -0.00003  -0.00003   2.03131
    A4        2.11893  -0.00000   0.00000  -0.00001  -0.00001   2.11892
    A5        2.07848   0.00001   0.00000  -0.00000  -0.00000   2.07848
    A6        2.08451  -0.00000   0.00000   0.00001   0.00001   2.08452
    A7        1.93731   0.00001   0.00000   0.00007   0.00007   1.93739
    A8        2.05977   0.00000   0.00000  -0.00004  -0.00004   2.05973
    A9        2.04059  -0.00000   0.00000   0.00000   0.00000   2.04060
   A10        1.77813  -0.00001   0.00000  -0.00001  -0.00001   1.77812
   A11        1.62775   0.00000   0.00000   0.00000   0.00000   1.62775
   A12        1.94969   0.00000   0.00000  -0.00001  -0.00001   1.94968
   A13        1.91293   0.00000   0.00000   0.00002   0.00002   1.91295
   A14        1.90891  -0.00000   0.00000   0.00001   0.00001   1.90892
   A15        1.93468   0.00000   0.00000  -0.00000  -0.00000   1.93467
   A16        1.91143  -0.00000   0.00000  -0.00002  -0.00002   1.91141
   A17        1.91328  -0.00000   0.00000  -0.00001  -0.00001   1.91327
   A18        1.88229  -0.00000   0.00000  -0.00001  -0.00001   1.88229
   A19        1.96143  -0.00001   0.00000  -0.00000  -0.00000   1.96143
   A20        1.89931   0.00000   0.00000  -0.00000  -0.00000   1.89930
   A21        1.80842   0.00000   0.00000   0.00003   0.00003   1.80846
   A22        1.96679   0.00000   0.00000  -0.00001  -0.00001   1.96679
   A23        1.93078   0.00000   0.00000  -0.00001  -0.00001   1.93077
   A24        1.88927  -0.00000   0.00000  -0.00001  -0.00001   1.88927
   A25        2.07401   0.00000   0.00000  -0.00002  -0.00002   2.07400
   A26        2.14659  -0.00000   0.00000   0.00001   0.00001   2.14660
   A27        2.06204  -0.00000   0.00000   0.00000   0.00000   2.06205
   A28        2.11058  -0.00000   0.00000  -0.00001  -0.00001   2.11057
   A29        2.09615   0.00000   0.00000   0.00002   0.00002   2.09616
   A30        2.07640  -0.00000   0.00000  -0.00001  -0.00001   2.07640
   A31        2.10034  -0.00000   0.00000   0.00000   0.00000   2.10034
   A32        2.08402   0.00000   0.00000  -0.00000  -0.00000   2.08401
   A33        2.09882   0.00000   0.00000   0.00000   0.00000   2.09882
   A34        2.08158   0.00000   0.00000  -0.00000  -0.00000   2.08158
   A35        2.10037  -0.00000   0.00000  -0.00001  -0.00001   2.10037
   A36        2.10123   0.00000   0.00000   0.00001   0.00001   2.10124
   A37        2.10232   0.00000   0.00000   0.00001   0.00001   2.10232
   A38        2.09813  -0.00000   0.00000  -0.00000  -0.00000   2.09813
   A39        2.08274  -0.00000   0.00000  -0.00000  -0.00000   2.08273
   A40        2.10938   0.00000   0.00000  -0.00000  -0.00000   2.10938
   A41        2.09748  -0.00000   0.00000  -0.00000  -0.00000   2.09748
   A42        2.07629  -0.00000   0.00000   0.00000   0.00000   2.07630
   A43        2.09947  -0.00000   0.00000  -0.00001  -0.00001   2.09946
   A44        2.03263   0.00000   0.00000  -0.00005  -0.00005   2.03258
   A45        2.02463  -0.00000   0.00000  -0.00003  -0.00003   2.02460
   A46        1.92461  -0.00000   0.00000  -0.00005  -0.00005   1.92456
   A47        1.96340   0.00000   0.00000   0.00003   0.00003   1.96343
   A48        1.89427   0.00000   0.00000   0.00002   0.00002   1.89429
   A49        1.88553   0.00000   0.00000   0.00000   0.00000   1.88554
   A50        1.89535  -0.00000   0.00000   0.00001   0.00001   1.89536
   A51        1.89951  -0.00000   0.00000  -0.00001  -0.00001   1.89950
    D1        2.95544  -0.00000   0.00000   0.00002   0.00002   2.95545
    D2       -0.13187  -0.00000   0.00000  -0.00001  -0.00001  -0.13188
    D3       -0.00524  -0.00000   0.00000  -0.00001  -0.00001  -0.00525
    D4       -3.09254  -0.00000   0.00000  -0.00004  -0.00004  -3.09258
    D5       -0.97041  -0.00001   0.00000  -0.00010  -0.00010  -0.97051
    D6       -3.01246   0.00000   0.00000  -0.00012  -0.00012  -3.01257
    D7        0.86680  -0.00000   0.00000  -0.00005  -0.00005   0.86675
    D8        1.98578  -0.00001   0.00000  -0.00007  -0.00007   1.98571
    D9       -0.05628   0.00000   0.00000  -0.00008  -0.00008  -0.05636
   D10       -2.46020   0.00000   0.00000  -0.00002  -0.00002  -2.46022
   D11       -3.06091   0.00000   0.00000   0.00011   0.00011  -3.06080
   D12       -0.45896  -0.00000   0.00000  -0.00008  -0.00008  -0.45905
   D13        0.13389  -0.00000   0.00000   0.00009   0.00009   0.13397
   D14        2.73583  -0.00000   0.00000  -0.00011  -0.00011   2.73572
   D15       -0.94294   0.00000   0.00000   0.00029   0.00029  -0.94265
   D16       -3.13380   0.00000   0.00000   0.00030   0.00030  -3.13350
   D17        1.14191  -0.00000   0.00000   0.00029   0.00029   1.14220
   D18        1.26499  -0.00000   0.00000   0.00027   0.00027   1.26526
   D19       -0.92587   0.00000   0.00000   0.00028   0.00028  -0.92558
   D20       -2.93334  -0.00000   0.00000   0.00028   0.00028  -2.93306
   D21       -3.04612  -0.00000   0.00000   0.00026   0.00026  -3.04586
   D22        1.04621   0.00000   0.00000   0.00027   0.00027   1.04648
   D23       -0.96127  -0.00000   0.00000   0.00027   0.00027  -0.96100
   D24        0.63716   0.00000   0.00000   0.00036   0.00036   0.63752
   D25       -2.54041   0.00000   0.00000   0.00039   0.00039  -2.54002
   D26       -1.48840   0.00000   0.00000   0.00030   0.00030  -1.48810
   D27        1.61722  -0.00000   0.00000   0.00033   0.00033   1.61755
   D28        3.07710   0.00000   0.00000   0.00031   0.00031   3.07740
   D29       -0.10047   0.00000   0.00000   0.00034   0.00034  -0.10013
   D30        2.80719   0.00000   0.00000   0.00035   0.00035   2.80754
   D31       -1.32242  -0.00000   0.00000   0.00034   0.00034  -1.32208
   D32        0.79521   0.00000   0.00000   0.00032   0.00032   0.79553
   D33       -1.36195   0.00000   0.00000   0.00038   0.00038  -1.36157
   D34        0.79163   0.00000   0.00000   0.00036   0.00036   0.79199
   D35        2.90926   0.00000   0.00000   0.00035   0.00035   2.90960
[...]
 0.00082884,0.00062639,0.00008451,0.00038977,-0.00024249,0.00059077,-0.
 00008538,-0.00053394,-0.00044511,-0.00015575,0.00098341,-0.00028448,0.
 00026817,-0.00175781,0.00039713,0.00048909,0.00000248,-0.00002188,0.00
 004096,-0.00001387,0.00002998,-0.00006137,0.00002205,0.00001456,-0.000
 02502,-0.00012479,0.00003259,0.00002343,0.00019648,-0.00835738,-0.0025
 9853,0.10698840,0.22142685,-0.06331957,-0.12444382,-0.09248381,-0.0007
 8723,-0.00103937,0.00057705,0.00144010,0.00145742,-0.00212622,-0.00688
 968,-0.01716948,0.00081655,-0.00016707,-0.00119342,0.00025871,-0.00002
 549,0.00057785,0.00005923,0.00004155,0.00013284,-0.00004780,-0.0002676
 3,0.00036739,-0.00034008,0.00219608,-0.00247503,-0.00754132,-0.0005758
 3,0.00049876,-0.00140272,0.00031127,0.00017221,0.00012654,0.00030251,0
 .00110530,-0.00225687,0.00054154,-0.00102275,0.00013615,-0.00052875,0.
 00053299,-0.00010480,-0.00000374,-0.00030726,-0.00005703,0.00012561,0.
 00037491,0.00017750,-0.00049559,0.00025948,0.00003848,0.00168469,0.001
 28768,-0.00042239,-0.00002506,-0.00002536,0.00000173,-0.00006930,0.000
 04225,0.00001227,-0.00002693,0.00001013,-0.00002970,0.00001386,0.00005
 218,-0.00005848,0.00149749,0.00921263,0.00223002,0.06549387,0.13245318
 ,0.10007847,-0.03573234,-0.02475301,-0.02155252,-0.19355092,-0.0549379
 0,-0.06405289,0.02551987,0.00665405,0.00896210,0.00509945,-0.01068484,
 -0.01213829,0.00056544,0.00153125,-0.00003814,0.00004702,-0.00036570,0
 .00016906,-0.00003012,-0.00018579,-0.00003633,-0.00012184,-0.00004443,
 -0.00063538,0.00022595,0.00144320,0.00722337,0.00023048,-0.00042200,-0
 .00021431,-0.00188388,-0.00061076,0.00050014,0.00088178,0.00068112,0.0
 0024406,-0.00079864,-0.00015262,0.00035539,0.00019480,0.00018900,-0.00
 008371,-0.00050351,0.00021163,-0.00005822,-0.00033175,-0.00025891,-0.0
 0004272,-0.00025490,-0.00030380,0.00007988,0.00021932,0.00044216,-0.00
 000420,-0.00009277,-0.00009058,-0.00000012,-0.00009631,0.00000179,0.00
 001735,-0.00013588,0.00004202,-0.00000635,0.00015693,-0.00011285,0.000
 04022,-0.00498437,0.00667250,0.00068263,-0.00671535,0.00068013,-0.0005
 1339,0.66088636,-0.01951351,0.01317774,-0.00261530,-0.05189419,-0.1772
 5239,-0.07801577,-0.00670486,-0.07104908,-0.05565198,0.00301153,-0.009
 57652,-0.00945855,0.00040263,0.00065436,-0.00000017,-0.00000269,-0.000
 18523,0.00006468,-0.00000226,-0.00002597,-0.00005944,-0.00012913,-0.00
 008493,-0.00047353,0.00077107,0.00148681,0.00446575,0.00043713,-0.0000
 9321,0.00056550,-0.00136459,-0.00014064,0.00116081,0.00054721,0.000139
 74,0.00058363,-0.00026620,-0.00003432,0.00008497,0.00011915,0.00009081
 ,-0.00018337,-0.00021042,0.00011474,-0.00000563,-0.00016548,-0.0000794
 5,-0.00007855,0.00017008,-0.00022970,-0.00001457,0.00009260,0.00009267
 ,0.00011589,-0.00003017,-0.00003384,-0.00000409,-0.00002979,0.00000893
 ,0.00003955,-0.00004878,0.00001401,0.00000330,-0.00005901,0.00010360,0
 .00006840,0.00457016,0.00188757,0.00106812,0.00200747,0.00085299,-0.00
 058570,-0.08254783,0.72342865,-0.02576166,0.00066924,0.00926196,-0.036
 74020,-0.04412219,-0.09583293,0.00178469,-0.06003528,-0.01305540,0.002
 99970,-0.01206171,-0.01421192,0.00015909,0.00050119,0.00081536,-0.0000
 9418,-0.00033437,0.00003345,0.00000282,0.00014953,-0.00006742,-0.00018
 046,-0.00011168,-0.00053326,0.00191168,0.00043241,0.00591892,0.0011387
 4,0.00028614,0.00093865,-0.00309239,0.00111660,0.00260874,0.00079305,0
 .00055136,-0.00003245,-0.00046286,-0.00015045,0.00020235,0.00003947,0.
 00016953,-0.00023914,-0.00029954,0.00004627,-0.00002454,-0.00014102,-0
 .00003902,-0.00001758,-0.00016019,-0.00028374,-0.00001828,0.00011046,0
 .00026592,0.00015775,-0.00005265,-0.00005419,-0.00000702,-0.00005420,0
 .00000854,0.00004346,-0.00008580,0.00002181,0.00000546,0.00003549,0.00
 004101,0.00003586,0.00122405,0.00354672,0.00240966,0.00025007,-0.00089
 501,0.00211764,0.06041430,0.17871043,0.15269603,0.00596405,-0.00118352
 ,-0.00047877,-0.03216824,-0.01921588,-0.00860895,-0.00009573,0.0102395
 4,0.00416399,-0.00135200,0.00229391,0.00246891,-0.00013076,-0.00054952
 ,0.00012111,-0.00002331,0.00010602,-0.00007836,0.00003780,0.00008395,-
 0.00002711,0.00000028,-0.00004548,0.00018062,0.00039511,-0.00035313,-0
 .00159228,0.00002683,0.00020902,-0.00001005,-0.00070081,0.00025259,0.0
 0091823,-0.00035064,-0.00015859,-0.00004715,0.00021884,0.00001379,-0.0
 0005515,0.00000540,-0.00003468,0.00004817,0.00013772,-0.00001291,0.000
 01335,0.00006605,0.00005637,0.00001615,0.00018640,0.00009609,0.0000009
 8,-0.00005501,-0.00009976,-0.00003837,0.00003375,0.00002816,0.00000318
 ,0.00003006,0.00000345,-0.00000924,0.00004642,-0.00001260,-0.00000070,
 -0.00007651,0.00004777,-0.00001993,0.00071521,-0.00074776,-0.00025297,
 0.00028438,0.00036204,-0.00010861,-0.24374296,0.01742387,-0.00167000,0
 .50464788,-0.00179750,-0.00177644,-0.00388401,-0.02716722,0.00641210,0
 .00366944,-0.00098028,-0.00079644,0.00155799,-0.00008187,-0.00201825,-
 0.00125821,0.00006628,0.00012235,-0.00004299,0.00000686,-0.00001853,0.
 00000977,-0.00000527,0.00000221,-0.00000082,0.00000228,0.00001775,-0.0
 0007317,-0.00000159,0.00025649,0.00079974,0.00003899,-0.00004172,0.000
 07246,-0.00005209,-0.00015831,0.00015310,0.00000044,0.00016994,0.00016
 044,-0.00006574,-0.00003857,0.00005469,0.00005930,0.00003035,-0.000000
 76,-0.00003904,0.00005540,-0.00000513,-0.00006649,0.00000607,-0.000013
 77,0.00007634,-0.00011491,0.00001523,0.00002351,0.00004683,-0.00001464
 ,-0.00000319,-0.00000661,0.00000239,-0.00000368,0.00000692,-0.00000030
 ,-0.00000876,0.00000105,-0.00000076,-0.00003849,0.00005418,0.00000415,
 0.00163512,-0.00031711,0.00027292,-0.00122877,0.00040267,-0.00041408,0
 .00292671,-0.10411027,-0.01613897,0.00074717,0.60861217,0.00103795,-0.
 00512880,0.00165511,-0.02465806,-0.00299628,-0.00456823,-0.00282714,0.
 00432238,-0.00271165,-0.00013855,0.00056081,0.00058483,-0.00005292,-0.
 00026266,0.00011727,-0.00002408,0.00004754,-0.00001774,0.00000692,0.00
 005161,-0.00000953,0.00001490,0.00001718,0.00004217,-0.00015514,-0.000
 23803,-0.00105134,0.00005506,0.00012009,0.00009702,0.00001863,0.000172
 32,0.00048120,-0.00015597,0.00004435,-0.00002702,0.00003765,-0.0000521
 4,-0.00000213,-0.00005673,0.00002096,0.00000929,0.00004646,-0.00004295
 ,-0.00000056,0.00004026,0.00005025,-0.00002173,-0.00001572,0.00005473,
 0.00000289,-0.00002106,0.00004082,-0.00001908,0.00000416,0.00000624,0.
 00000179,0.00000122,0.00000148,0.00000282,0.00000783,-0.00000259,-0.00
 000366,-0.00001027,0.00000060,0.00001820,0.00017187,0.00031708,0.00017
 251,-0.00084276,-0.00052188,0.00088821,0.01427235,-0.01212703,-0.06055
 964,0.00874431,0.01511299,0.57200543,-0.00508888,0.00186767,0.00061878
 ,0.02096636,-0.01232084,0.00650196,-0.00157578,-0.00524845,-0.00640798
 ,-0.00255402,-0.00791197,-0.00274979,0.00007196,-0.00013413,-0.0002416
 3,0.00001613,0.00009151,-0.00005643,0.00001539,0.00007989,-0.00002466,
 -0.00000664,0.00002161,-0.00004746,-0.00008775,0.00109077,0.00105279,0
 .00003715,0.00000400,0.00028245,-0.00046156,-0.00037945,0.00157702,0.0
 0011322,0.00044296,-0.00002477,0.00006399,-0.00012936,0.00003935,0.000
 09324,0.00009699,-0.00004175,0.00004316,0.00007131,0.00000710,-0.00005
 305,0.00011636,-0.00006752,0.00032357,-0.00014962,0.00002019,-0.000012
 78,0.00003452,0.00001970,0.00003143,0.00001420,0.00000215,0.00001798,0
 .00002240,0.00002208,0.00002531,-0.00001098,0.00000056,-0.00025987,0.0
 0020241,0.00005592,-0.00214280,0.00472427,0.00035175,-0.00006566,0.000
 33613,0.00013395,-0.13199752,0.13760513,0.00270274,-0.01201874,0.02941
 103,0.00168279,0.13899286,0.00030641,0.00035031,-0.00073120,0.01119990
 ,-0.01829058,0.00268877,-0.00263578,-0.00042776,-0.00313238,-0.0017725
 8,0.00319793,-0.00025693,0.00009858,-0.00019826,0.00021058,-0.00002168
 ,-0.00002596,-0.00001268,0.00001399,0.00007068,-0.00002645,-0.00001195
 ,-0.00002498,0.00002808,-0.00009873,-0.00075048,0.00004595,0.00024009,
 0.00019793,-0.00006661,-0.00070603,0.00048079,0.00136455,-0.00019031,-
 0.00065186,0.00020884,-0.00005268,0.00008633,-0.00002934,-0.00004230,-
 0.00007502,-0.00000264,0.00002572,-0.00003695,0.00000470,0.00004310,-0
 .00003664,0.00003049,0.00001239,0.00003408,-0.00000664,-0.00001721,-0.
 00005209,0.00000057,-0.00000887,0.00000152,-0.00000176,0.00000271,-0.0
 0000717,-0.00001027,0.00000549,0.00000152,0.00000088,0.00010981,-0.000
 05808,-0.00003438,0.00327076,-0.00362417,0.00014420,0.00052299,-0.0000
 3258,0.00013905,0.14589715,-0.38637207,-0.04953657,-0.00377029,0.00631
 801,0.00229401,-0.14947489,0.39813340,0.00336665,-0.00002438,-0.001420
 67,0.00690249,-0.02215660,-0.01159363,-0.00425348,-0.00470586,0.002463
 79,-0.00061434,0.00158799,0.00418370,-0.00027544,0.00015476,-0.0002285
 4,0.00003500,0.00003136,0.00000517,-0.00001604,-0.00014580,0.00005214,
 0.00004426,-0.00000103,0.00009161,-0.00002828,0.00003315,-0.00134423,-
 0.00034236,-0.00019589,-0.00017801,0.00225590,0.00067561,-0.00251525,-
 0.00023604,0.00003794,-0.00015154,0.00012040,0.00006803,-0.00003799,-0
 .00000355,-0.00001973,0.00006200,0.00004084,-0.00000322,0.00000198,0.0
 0000018,0.00002195,0.00004600,0.00002681,-0.00004544,0.00000858,0.0000
 0032,-0.00004713,-0.00003080,0.00000675,0.00000621,0.00000052,0.000008
 73,-0.00000048,-0.00001742,0.00000725,-0.00000380,0.00000048,-0.000017
 40,0.00001657,-0.00004453,-0.00037945,-0.00029167,-0.00084777,0.000198
 92,0.00045786,-0.00068401,0.00003506,-0.02425353,-0.00479381,0.0006901
 3,0.00192862,-0.00409221,-0.00588944,0.04626364,0.02107979,-0.00095126
 ,-0.00024093,0.00059466,0.00153450,0.00452325,0.00219991,0.00067678,-0
 .00216513,-0.00082238,0.00047717,-0.00030473,-0.00064355,0.00003061,0.
 00011155,0.00000378,0.00000090,-0.00002610,0.00001770,-0.00000448,-0.0
 0001727,0.00000183,-0.00000414,0.00000394,-0.00003906,-0.00002248,0.00
 002037,0.00030879,0.00000764,-0.00003165,-0.00000063,0.00008020,-0.000
 00200,-0.00016765,0.00009033,0.00001728,-0.00000437,-0.00005691,0.0000
 0039,0.00001148,-0.00000869,0.00000536,-0.00001482,-0.00003366,-0.0000
 0458,-0.00000382,-0.00000599,-0.00001888,-0.00000512,-0.00005661,0.000
 00089,0.00000197,0.00001141,0.00002333,0.00001035,-0.00000910,-0.00000
 687,-0.00000094,-0.00000805,-0.00000218,0.00000344,-0.00001122,0.00000
 361,-0.00000026,0.00002909,-0.00002349,0.00000770,-0.00055760,0.000386
 15,0.00004912,-0.00006781,-0.00014927,0.00011308,-0.02151011,0.0339290
 6,-0.01037776,-0.07066268,0.06605252,-0.02701965,-0.00466991,-0.001572
 28,-0.00286291,0.08752639,0.00000581,-0.00004377,0.00063087,-0.0004811
 5,-0.00145284,-0.00165964,-0.00147268,0.00029470,-0.00008460,-0.000104
 08,-0.00009521,0.00007676,-0.00001226,-0.00003112,0.00001695,-0.000003
 44,0.00000267,-0.00000727,0.00000175,0.00000673,-0.00000228,0.00000161
 ,-0.00000535,0.00001056,0.00002704,0.00000091,-0.00002986,0.00000856,0
 .00001258,0.00000969,-0.00006943,0.00002334,0.00008826,-0.00001227,0.0
 0001380,-0.00004875,0.00001152,0.00000143,-0.00000481,-0.00000023,-0.0
 0000117,0.00000213,0.00000818,-0.00000101,0.00000034,0.00000340,0.0000
 0742,0.00000480,0.00001092,-0.00000060,-0.00000118,-0.00000205,-0.0000
 0520,0.00000031,0.00000210,0.00000165,-0.00000016,0.00000166,0.0000003
 3,-0.00000013,0.00000188,-0.00000095,0.00000016,-0.00000531,0.00000602
 ,-0.00000125,0.00012408,0.00000772,-0.00000235,0.00006929,0.00002871,-
 0.00002265,0.00431343,0.00344639,-0.00283396,0.07346635,-0.25973764,0.
 08826356,-0.00052278,0.00107718,0.00092716,-0.08205349,0.27673759,-0.0
 0000254,-0.00015021,-0.00006965,-0.00089758,0.00166300,0.00113327,0.00
 139195,-0.00033963,-0.00011388,0.00000171,-0.00006148,-0.00001032,0.00
 000847,0.00000272,-0.00001988,0.00000385,0.00000352,0.00000131,-0.0000
 0062,-0.00000016,-0.00000107,-0.00000364,-0.00000056,0.00000182,0.0000
 0372,0.00000662,0.00000864,-0.00000424,-0.00000225,-0.00001407,0.00001
 410,-0.00002773,0.00000412,0.00001044,-0.00000370,-0.00002112,-0.00000
 141,-0.00000085,-0.00000044,0.00000080,0.00000046,0.00000015,0.0000005
 8,0.00000022,0.00000004,0.00000046,0.00000080,0.00000175,0.00000526,0.
 00000003,0.00000318,-0.00000028,0.00000028,0.00000097,0.00000030,0.000
 00018,-0.00000015,0.00000019,0.00000009,0.00000007,0.00000045,-0.00000
 006,-0.00000004,-0.00000156,0.00000130,-0.00000104,0.00005569,0.000000
 55,0.00000091,-0.00001996,0.00000909,-0.00001044,-0.00078211,-0.004056
 10,0.00205443,-0.02972392,0.08813413,-0.08464967,0.00068240,-0.0001461
 2,-0.00006463,0.03029152,-0.09515824,0.08451107,-0.00229826,0.00104465
 ,-0.00072874,0.00385655,0.00711842,0.00572355,0.00145023,-0.00279648,-
 0.00118467,0.00064854,-0.00134447,-0.00144512,0.00007142,0.00028681,-0
 .00007432,0.00001449,-0.00005733,0.00003374,-0.00001474,-0.00004239,0.
 00000941,-0.00000672,0.00001201,-0.00008757,-0.00002371,0.00022693,0.0
 0102819,-0.00000774,-0.00010935,-0.00001911,0.00017957,-0.00014335,-0.
 00039142,0.00017649,0.00007408,0.00005003,-0.00010621,0.00000170,0.000
 03045,0.00002253,0.00001365,-0.00002308,-0.00007363,0.00002398,-0.0000
 0633,-0.00004410,-0.00003444,-0.00000080,-0.00004958,-0.00006294,0.000
 00499,0.00002972,0.00003700,0.00001689,-0.00001516,-0.00001360,-0.0000
 0083,-0.00001280,-0.00000068,0.00000317,-0.00002146,0.00000612,0.00000
 069,0.00002924,-0.00000999,0.00000307,-0.00014446,0.00034424,0.0000886
 2,-0.00015233,0.00005853,-0.00017681,-0.03041466,-0.00641402,0.0285283
 2,-0.07530680,-0.01028663,0.07761567,-0.00083833,-0.00123398,0.0014116
 5,0.00430260,0.00026012,-0.00835014,0.09435149,-0.00024150,0.00005490,
 -0.00010271,-0.00099147,0.00075281,0.00113569,0.00117068,0.00038175,0.
 00015530,0.00005963,-0.00013298,-0.00021368,0.00000082,0.00001076,0.00
 000644,0.00000094,-0.00000544,-0.00000203,-0.00000027,0.00000161,-0.00
 000062,-0.00000263,-0.00000301,-0.00000133,0.00004652,0.00000486,0.000
 09998,0.00001274,0.00000088,-0.00000441,-0.00003266,0.00000664,0.00004
 503,0.00002143,-0.00001229,-0.00000004,-0.00000814,-0.00000086,0.00000
 084,0.00000401,0.00000069,-0.00000292,-0.00000471,0.00000274,-0.000000
 50,-0.00000141,-0.00000437,-0.00000235,0.00000730,0.00000047,0.0000020
 5,0.00000048,0.00000039,0.00000235,-0.00000039,-0.00000055,-0.00000010
 ,-0.00000044,0.00000007,0.00000121,-0.00000024,0.00000021,0.00000009,-
 0.00000066,0.00000063,0.00000288,0.00004643,0.00000959,0.00002145,-0.0
 0001440,0.00000059,0.00000233,0.00035920,0.00184543,-0.00265032,-0.010
 75723,-0.05440439,0.02945345,0.00024121,0.00003613,-0.00052085,-0.0092
 3771,-0.00287532,0.02721171,0.01061105,0.05006688,0.00051881,0.0004978
 4,-0.00041160,-0.00137130,-0.00319562,-0.00024991,-0.00052802,0.001517
 42,0.00086482,-0.00022971,0.00031792,0.00014089,-0.00000678,-0.0000555
 7,0.00000021,-0.00000164,0.00001076,-0.00000570,0.00000538,0.00000736,
 -0.00000449,-0.00000741,-0.00000853,0.00002236,0.00004490,-0.00004161,
 -0.00011584,0.00000425,0.00002254,-0.00000664,-0.00007340,0.00002430,0
 .00012352,-0.00000287,-0.00004549,0.00001489,0.00001717,-0.00000180,-0
 .00000642,0.00000446,-0.00000563,0.00000246,0.00001241,-0.00000006,0.0
 0000194,0.00000918,0.00000183,0.00000058,0.00002270,0.00001682,0.00000
 349,-0.00000920,-0.00001621,-0.00000181,0.00000413,0.00000323,-0.00000
 003,0.00000381,0.00000027,-0.00000062,0.00000605,-0.00000137,-0.000000
 28,-0.00000986,0.00000521,-0.00000229,0.00008025,-0.00011362,-0.000027
 17,0.00008311,0.00000157,0.00000349,0.00619748,-0.00137810,0.00895672,
 0.07939816,0.03000624,-0.27307782,0.00028328,0.00052681,-0.00035701,0.
 00296320,0.00075568,-0.01090664,-0.09260561,-0.03239013,0.29062798,-0.
 00102489,-0.00122614,-0.00060445,-0.00504000,0.00526429,0.00184300,0.0
 0180715,-0.00017840,-0.00002426,0.00027433,-0.00079968,-0.00080704,0.0
 0003197,0.00009823,-0.00000344,0.00000042,-0.00002300,0.00001411,-0.00
 000591,-0.00000668,0.00000189,-0.00000096,0.00001228,-0.00004388,-0.00
 004111,0.00009106,0.00041408,0.00002084,-0.00002991,0.00003080,0.00003
 350,-0.00004314,-0.00006404,0.00006495,0.00008757,0.00004031,-0.000060
 05,-0.00002176,0.00002092,0.00000865,0.00001717,-0.00000868,-0.0000353
 3,0.00001072,-0.00000428,-0.00002337,-0.00000617,-0.00000732,-0.000030
 98,-0.00003377,0.00000750,0.00001480,0.00003840,0.00000207,-0.00000731
 ,-0.00000693,-0.00000020,-0.00000735,0.00000079,0.00000218,-0.00001133
 ,0.00000280,-0.00000116,0.00000951,-0.00000081,0.00000610,0.00007429,0
 .00025857,0.00011895,-0.00056184,-0.00003309,0.00008508,-0.02112954,-0
 .03170418,-0.02292175,-0.07611200,-0.05921991,-0.04777999,0.00102156,-
 0.00013951,-0.00023262,0.00387309,0.00642144,0.00731609,0.00439781,0.0
 0871144,0.00518709,0.09245908,-0.00040262,0.00024955,-0.00010455,0.001
 99090,-0.00019023,-0.00016864,-0.00200260,0.00011202,-0.00040733,0.000
 14204,-0.00020858,-0.00031791,0.00001465,0.00005151,-0.00000678,0.0000
 0030,-0.00001359,0.00000803,-0.00000294,-0.00000634,0.00000214,0.00000
 149,0.00000468,-0.00001941,-0.00002449,0.00004114,0.00020955,0.0000068
 4,-0.00001734,0.00001210,0.00002039,-0.00001525,-0.00005605,0.00003720
 ,0.00000755,0.00002767,-0.00002426,-0.00000191,0.00000760,0.00000308,0
 .00000186,-0.00000454,-0.00001547,0.00000382,-0.00000149,-0.00000785,-
 0.00000775,-0.00000297,-0.00001432,-0.00001001,0.00000104,0.00000440,0
 .00000879,0.00000219,-0.00000375,-0.00000296,-0.00000004,-0.00000304,-
 0.00000036,0.00000075,-0.00000476,0.00000154,0.00000028,0.00000805,-0.
 00000436,0.00000183,-0.00010700,0.00008562,0.00001167,-0.00002887,0.00
 004056,0.00002033,0.00342569,0.00192316,0.00273075,-0.06848875,-0.1989
 7529,-0.11958010,-0.00019190,0.00067883,0.00020456,-0.00922112,-0.0174
 1899,-0.01708760,0.00243037,0.00426116,0.00353793,0.07245831,0.2094011
 6,-0.00030146,0.00004192,0.00013137,0.00106696,0.00038493,0.00046266,-
 0.00057647,-0.00011620,0.00032194,0.00005039,-0.00020030,-0.00022446,0
 .00000509,0.00003142,-0.00000611,0.00000227,-0.00000610,0.00000347,-0.
 00000146,-0.00000465,0.00000019,-0.00000264,0.00000039,-0.00000864,-0.
 00000946,0.00002720,0.00012423,0.00000067,-0.00001272,0.00000250,0.000
 02185,-0.00001140,-0.00003663,0.00003196,0.00001249,0.00000367,-0.0000
 1516,-0.00000332,0.00000446,-0.00000146,0.00000361,-0.00000640,-0.0000
 0866,-0.00000105,-0.00000097,-0.00000217,-0.00000059,0.00000082,-0.000
 01185,-0.00000620,-0.00000098,0.00000244,0.00000778,0.00000400,-0.0000
 0212,-0.00000174,0.00000013,-0.00000183,0.00000006,0.00000079,-0.00000
 291,0.00000089,0.,0.00000304,-0.00000087,0.00000066,-0.00000881,0.0000
 8611,0.00001831,-0.00001575,0.00000174,0.00004358,0.00096530,0.0020303
 9,0.00113695,-0.05404571,-0.12010670,-0.14526673,-0.00048555,0.0000428
 3,0.00040629,0.00538439,0.00906991,0.00816131,-0.00945389,-0.02224882,
 -0.01558909,0.05741299,0.13097900,0.15031270\\0.00000018,0.00000047,-0
 .00000008,0.00000020,0.00000081,-0.00000014,0.00000044,0.00000131,-0.0
 0000032,-0.00000024,0.00000016,0.00000028,0.00000030,-0.00000044,-0.00
 000028,0.00000029,-0.00000054,-0.00000021,0.00000032,-0.00000086,-0.00
 000029,0.00000053,-0.00000013,-0.00000042,-0.00000019,-0.00000033,-0.0
 0000002,-0.00000035,-0.00000058,0.00000025,-0.00000021,-0.00000005,0.0
 0000019,-0.00000012,-0.00000035,0.00000006,0.00000033,-0.00000045,-0.0
 0000030,0.00000043,-0.00000086,-0.00000035,0.00000007,-0.00000108,-0.0
 0000011,-0.00000034,-0.00000094,0.00000026,-0.00000039,-0.00000061,0.0
 0000031,0.00000053,-0.00000023,-0.00000047,0.00000068,-0.00000094,-0.0
 0000063,0.00000012,-0.00000140,-0.00000016,-0.00000058,-0.00000117,0.0
 0000043,-0.00000067,-0.00000047,0.00000059,-0.00000070,0.00000030,0.00
 000058,0.00000038,0.00000051,-0.00000034,-0.00000011,0.00000104,0.0000
 0015,-0.00000014,0.00000140,0.00000010,-0.00000041,0.00000082,0.000000
 36,0.00000015,0.00000144,-0.00000009,-0.00000011,0.00000178,0.00000027
 ,-0.00000040,0.00000141,0.00000039\\\@


 Happiness is a conscious choice, not an automatic response.
 -- Mildred Barthel
 Job cpu time:       0 days 15 hours 23 minutes  3.7 seconds.
 Elapsed time:       0 days  0 hours 57 minutes 47.4 seconds.
 File lengths (MBytes):  RWF=    958 Int=      0 D2E=      0 Chk=     39 Scr=      1
 Normal termination of Gaussian 16 at Sun Feb  7 12:39:50 2021.
