 Entering Gaussian System, Link 0=g16
 Initial command:
 /apps/gaussian/16/A.03/g16/l1.exe "/beegfs/scratch/user/q/tla25/Gau-48242.inp" -scrdir="/beegfs/scratch/user/q/tla25/"
 Entering Link 1 = /apps/gaussian/16/A.03/g16/l1.exe PID=     48243.
  
 Copyright (c) 1988,1990,1992,1993,1995,1998,2003,2009,2016,
            Gaussian, Inc.  All Rights Reserved.
  
 This is part of the Gaussian(R) 16 program.  It is based on
 the Gaussian(R) 09 system (copyright 2009, Gaussian, Inc.),
 the Gaussian(R) 03 system (copyright 2003, Gaussian, Inc.),
 the Gaussian(R) 98 system (copyright 1998, Gaussian, Inc.),
 the Gaussian(R) 94 system (copyright 1995, Gaussian, Inc.),
 the Gaussian 92(TM) system (copyright 1992, Gaussian, Inc.),
 the Gaussian 90(TM) system (copyright 1990, Gaussian, Inc.),
 the Gaussian 88(TM) system (copyright 1988, Gaussian, Inc.),
 the Gaussian 86(TM) system (copyright 1986, Carnegie Mellon
 University), and the Gaussian 82(TM) system (copyright 1983,
 Carnegie Mellon University). Gaussian is a federally registered
 trademark of Gaussian, Inc.
  
 This software contains proprietary and confidential information,
 including trade secrets, belonging to Gaussian, Inc.
  
 This software is provided under written license and may be
 used, copied, transmitted, or stored only in accord with that
 written license.
  
 The following legend is applicable only to US Government
 contracts under FAR:
  
                    RESTRICTED RIGHTS LEGEND
  
 Use, reproduction and disclosure by the US Government is
 subject to restrictions as set forth in subparagraphs (a)
 and (c) of the Commercial Computer Software - Restricted
 Rights clause in FAR 52.227-19.
  
 Gaussian, Inc.
 340 Quinnipiac St., Bldg. 40, Wallingford CT 06492
  
  
 ---------------------------------------------------------------
 Warning -- This program may not be used in any manner that
 competes with the business of Gaussian, Inc. or will provide
 assistance to any competitor of Gaussian, Inc.  The licensee
 of this program is prohibited from giving any competitor of
 Gaussian, Inc. access to this program.  By using this program,
 the user acknowledges that Gaussian, Inc. is engaged in the
 business of creating and licensing software in the field of
 computational chemistry and represents and warrants to the
 licensee that it is not a competitor of Gaussian, Inc. and that
 it will not use this program in any manner prohibited above.
 ---------------------------------------------------------------
  

 Cite this work as:
 Gaussian 16, Revision A.03,
 M. J. Frisch, G. W. Trucks, H. B. Schlegel, G. E. Scuseria, 
 M. A. Robb, J. R. Cheeseman, G. Scalmani, V. Barone, 
 G. A. Petersson, H. Nakatsuji, X. Li, M. Caricato, A. V. Marenich, 
 J. Bloino, B. G. Janesko, R. Gomperts, B. Mennucci, H. P. Hratchian, 
 J. V. Ortiz, A. F. Izmaylov, J. L. Sonnenberg, D. Williams-Young, 
 F. Ding, F. Lipparini, F. Egidi, J. Goings, B. Peng, A. Petrone, 
 T. Henderson, D. Ranasinghe, V. G. Zakrzewski, J. Gao, N. Rega, 
 G. Zheng, W. Liang, M. Hada, M. Ehara, K. Toyota, R. Fukuda, 
 J. Hasegawa, M. Ishida, T. Nakajima, Y. Honda, O. Kitao, H. Nakai, 
 T. Vreven, K. Throssell, J. A. Montgomery, Jr., J. E. Peralta, 
 F. Ogliaro, M. J. Bearpark, J. J. Heyd, E. N. Brothers, K. N. Kudin, 
 V. N. Staroverov, T. A. Keith, R. Kobayashi, J. Normand, 
 K. Raghavachari, A. P. Rendell, J. C. Burant, S. S. Iyengar, 
 J. Tomasi, M. Cossi, J. M. Millam, M. Klene, C. Adamo, R. Cammi, 
 J. W. Ochterski, R. L. Martin, K. Morokuma, O. Farkas, 
 J. B. Foresman, and D. J. Fox, Gaussian, Inc., Wallingford CT, 2016.
 
 ******************************************
 Gaussian 16:  ES64L-G16RevA.03 25-Dec-2016
                25-Mar-2021 
 ******************************************
 %nprocshared=16
 Will use up to   16 processors via shared memory.
 %mem=48GB
 ----------------------------------------------------------------------
 # wB97XD def2tzvp, opt=(ts, noeigen, calcfc, maxcycles=70, maxstep=3),
  freq=noraman, scrf=(iefpcm, solvent=water)
 ----------------------------------------------------------------------
 1/5=1,6=70,8=3,10=4,11=1,18=20,26=3,38=1/1,3;
 2/9=110,12=2,17=6,18=5,40=1/2;
 3/5=44,7=101,11=2,25=1,30=1,70=2201,71=2,72=1,74=-58,140=1/1,2,3;
 4//1;
 5/5=2,38=5,53=1/2;
 8/6=4,10=90,11=11/1;
 11/6=1,8=1,9=11,15=111,16=1/1,2,10;
 10/6=1,13=1/2;
 6/7=2,8=2,9=2,10=2,28=1/1;
 7/10=1,18=20,25=1/1,2,3,16;
 1/5=1,6=70,8=3,10=4,11=1,18=20,26=3/3(2);
 2/9=110/2;
 99//99;
 2/9=110/2;
 3/5=44,7=101,11=2,25=1,30=1,70=2205,71=1,72=1,74=-58/1,2,3;
 4/5=5,16=3,69=1/1;
 5/5=2,38=5,53=1/2;
 7//1,2,3,16;
 1/5=1,6=70,8=3,11=1,18=20,26=3/3(-5);
 2/9=110/2;
 6/7=2,8=2,9=2,10=2,19=2,28=1/1;
 99/9=1/99;
 ------------------------
 0_iteration/TS-246-0.out
 ------------------------
 Symbolic Z-matrix:
 Charge =  0 Multiplicity = 1
 C                    -0.21876   0.02758   0.25493 
 C                    -1.16278  -0.91061  -0.36942 
 O                    -0.91685  -1.49374  -1.43688 
 C                    -0.68788   1.29107   0.65118 
 C                    -1.03212   3.86489  -0.30717 
 H                    -1.07727   4.54132  -1.15983 
 H                    -1.98987   3.87366   0.21035 
 H                    -0.25629   4.20301   0.37767 
 N                    -0.73238   2.49444  -0.72253 
 H                    -1.42659   2.13536  -1.36783 
 H                     0.16914   2.4271   -1.18134 
 H                    -0.05869   1.89144   1.30266 
 H                    -1.73626   1.39139   0.90609 
 C                     1.21575  -0.21871   0.14987 
 C                     1.73498  -1.51668  -0.02839 
 C                     3.09471  -1.7625   -0.0696 
 C                     4.01411  -0.72716   0.06692 
 C                     3.53183   0.56033   0.24247 
 C                     2.16734   0.81059   0.2744 
 H                     1.04777  -2.34538  -0.13407 
 H                     3.44409  -2.77996  -0.20418 
 H                     5.07846  -0.92197   0.03425 
 H                     4.22287   1.38901   0.34619 
 H                     1.84787   1.83751   0.40366 
 N                    -2.37691  -1.13141   0.23217 
 C                    -2.70423  -0.79053   1.59908 
 C                    -3.40941  -1.8141   -0.52315 
 H                    -1.798    -0.55404   2.15025 
 H                    -3.39003   0.06125   1.66446 
 H                    -3.18734  -1.64415   2.08002 
 H                    -2.97607  -2.60432  -1.13155 
 H                    -4.12826  -2.25102   0.16843 
 H                    -3.94688  -1.12654  -1.1844 
 
 Add virtual bond connecting atoms N9         and C4         Dist= 3.45D+00.

 GradGradGradGradGradGradGradGradGradGradGradGradGradGradGradGradGradGrad
 Berny optimization.
 Initialization pass.
                           ----------------------------
                           !    Initial Parameters    !
                           ! (Angstroms and Degrees)  !
 --------------------------                            --------------------------
 ! Name  Definition              Value          Derivative Info.                !
 --------------------------------------------------------------------------------
 ! R1    R(1,2)                  1.4701         calculate D2E/DX2 analytically  !
 ! R2    R(1,4)                  1.4048         calculate D2E/DX2 analytically  !
 ! R3    R(1,14)                 1.4593         calculate D2E/DX2 analytically  !
 ! R4    R(2,3)                  1.241          calculate D2E/DX2 analytically  !
 ! R5    R(2,25)                 1.3729         calculate D2E/DX2 analytically  !
 ! R6    R(4,9)                  1.8268         calculate D2E/DX2 analytically  !
 ! R7    R(4,12)                 1.0866         calculate D2E/DX2 analytically  !
 ! R8    R(4,13)                 1.0836         calculate D2E/DX2 analytically  !
 ! R9    R(5,6)                  1.0893         calculate D2E/DX2 analytically  !
 ! R10   R(5,7)                  1.0887         calculate D2E/DX2 analytically  !
 ! R11   R(5,8)                  1.0887         calculate D2E/DX2 analytically  !
 ! R12   R(5,9)                  1.463          calculate D2E/DX2 analytically  !
 ! R13   R(9,10)                 1.0135         calculate D2E/DX2 analytically  !
 ! R14   R(9,11)                 1.0138         calculate D2E/DX2 analytically  !
 ! R15   R(14,15)                1.4093         calculate D2E/DX2 analytically  !
 ! R16   R(14,19)                1.4073         calculate D2E/DX2 analytically  !
 ! R17   R(15,16)                1.3824         calculate D2E/DX2 analytically  !
 ! R18   R(15,20)                1.0817         calculate D2E/DX2 analytically  !
 ! R19   R(16,17)                1.3914         calculate D2E/DX2 analytically  !
 ! R20   R(16,21)                1.0842         calculate D2E/DX2 analytically  !
 ! R21   R(17,18)                1.386          calculate D2E/DX2 analytically  !
 ! R22   R(17,22)                1.0825         calculate D2E/DX2 analytically  !
 ! R23   R(18,19)                1.3876         calculate D2E/DX2 analytically  !
 ! R24   R(18,23)                1.084          calculate D2E/DX2 analytically  !
 ! R25   R(19,24)                1.0832         calculate D2E/DX2 analytically  !
 ! R26   R(25,26)                1.4463         calculate D2E/DX2 analytically  !
 ! R27   R(25,27)                1.45           calculate D2E/DX2 analytically  !
 ! R28   R(26,28)                1.0867         calculate D2E/DX2 analytically  !
 ! R29   R(26,29)                1.0955         calculate D2E/DX2 analytically  !
 ! R30   R(26,30)                1.0924         calculate D2E/DX2 analytically  !
 ! R31   R(27,31)                1.0874         calculate D2E/DX2 analytically  !
 ! R32   R(27,32)                1.089          calculate D2E/DX2 analytically  !
 ! R33   R(27,33)                1.0949         calculate D2E/DX2 analytically  !
 ! A1    A(2,1,4)              118.6422         calculate D2E/DX2 analytically  !
 ! A2    A(2,1,14)             119.5354         calculate D2E/DX2 analytically  !
 ! A3    A(4,1,14)             120.0246         calculate D2E/DX2 analytically  !
 ! A4    A(1,2,3)              122.5438         calculate D2E/DX2 analytically  !
 ! A5    A(1,2,25)             118.9754         calculate D2E/DX2 analytically  !
 ! A6    A(3,2,25)             118.4648         calculate D2E/DX2 analytically  !
 ! A7    A(1,4,9)              112.8608         calculate D2E/DX2 analytically  !
 ! A8    A(1,4,12)             118.2083         calculate D2E/DX2 analytically  !
 ! A9    A(1,4,13)             118.2106         calculate D2E/DX2 analytically  !
 ! A10   A(9,4,12)              95.7964         calculate D2E/DX2 analytically  !
 ! A11   A(9,4,13)              95.2986         calculate D2E/DX2 analytically  !
 ! A12   A(12,4,13)            111.5941         calculate D2E/DX2 analytically  !
 ! A13   A(6,5,7)              109.3069         calculate D2E/DX2 analytically  !
 ! A14   A(6,5,8)              109.2121         calculate D2E/DX2 analytically  !
 ! A15   A(6,5,9)              111.5882         calculate D2E/DX2 analytically  !
 ! A16   A(7,5,8)              108.9897         calculate D2E/DX2 analytically  !
 ! A17   A(7,5,9)              108.8288         calculate D2E/DX2 analytically  !
 ! A18   A(8,5,9)              108.8752         calculate D2E/DX2 analytically  !
 ! A19   A(4,9,5)              114.1136         calculate D2E/DX2 analytically  !
 ! A20   A(4,9,10)             105.1932         calculate D2E/DX2 analytically  !
 ! A21   A(4,9,11)             105.9563         calculate D2E/DX2 analytically  !
 ! A22   A(5,9,10)             111.8567         calculate D2E/DX2 analytically  !
 ! A23   A(5,9,11)             111.8939         calculate D2E/DX2 analytically  !
 ! A24   A(10,9,11)            107.3019         calculate D2E/DX2 analytically  !
 ! A25   A(1,14,15)            121.7846         calculate D2E/DX2 analytically  !
 ! A26   A(1,14,19)            122.3364         calculate D2E/DX2 analytically  !
 ! A27   A(15,14,19)           115.8293         calculate D2E/DX2 analytically  !
 ! A28   A(14,15,16)           122.0016         calculate D2E/DX2 analytically  !
 ! A29   A(14,15,20)           118.938          calculate D2E/DX2 analytically  !
 ! A30   A(16,15,20)           119.0603         calculate D2E/DX2 analytically  !
 ! A31   A(15,16,17)           120.9786         calculate D2E/DX2 analytically  !
 ! A32   A(15,16,21)           119.1804         calculate D2E/DX2 analytically  !
 ! A33   A(17,16,21)           119.8398         calculate D2E/DX2 analytically  !
 ! A34   A(16,17,18)           118.2763         calculate D2E/DX2 analytically  !
 ! A35   A(16,17,22)           120.8524         calculate D2E/DX2 analytically  !
 ! A36   A(18,17,22)           120.8711         calculate D2E/DX2 analytically  !
 ! A37   A(17,18,19)           120.8377         calculate D2E/DX2 analytically  !
 ! A38   A(17,18,23)           120.0284         calculate D2E/DX2 analytically  !
 ! A39   A(19,18,23)           119.1306         calculate D2E/DX2 analytically  !
 ! A40   A(14,19,18)           122.0707         calculate D2E/DX2 analytically  !
 ! A41   A(14,19,24)           120.3001         calculate D2E/DX2 analytically  !
 ! A42   A(18,19,24)           117.6288         calculate D2E/DX2 analytically  !
 ! A43   A(2,25,26)            125.1968         calculate D2E/DX2 analytically  !
 ! A44   A(2,25,27)            118.5014         calculate D2E/DX2 analytically  !
 ! A45   A(26,25,27)           116.2392         calculate D2E/DX2 analytically  !
 ! A46   A(25,26,28)           109.9932         calculate D2E/DX2 analytically  !
 ! A47   A(25,26,29)           112.4165         calculate D2E/DX2 analytically  !
 ! A48   A(25,26,30)           109.3904         calculate D2E/DX2 analytically  !
 ! A49   A(28,26,29)           108.8183         calculate D2E/DX2 analytically  !
 ! A50   A(28,26,30)           108.3938         calculate D2E/DX2 analytically  !
 ! A51   A(29,26,30)           107.7245         calculate D2E/DX2 analytically  !
 ! A52   A(25,27,31)           110.4768         calculate D2E/DX2 analytically  !
 ! A53   A(25,27,32)           109.1545         calculate D2E/DX2 analytically  !
 ! A54   A(25,27,33)           111.6207         calculate D2E/DX2 analytically  !
 ! A55   A(31,27,32)           109.0757         calculate D2E/DX2 analytically  !
 ! A56   A(31,27,33)           108.3045         calculate D2E/DX2 analytically  !
 ! A57   A(32,27,33)           108.1461         calculate D2E/DX2 analytically  !
 ! D1    D(4,1,2,3)            129.8011         calculate D2E/DX2 analytically  !
 ! D2    D(4,1,2,25)           -48.7248         calculate D2E/DX2 analytically  !
 ! D3    D(14,1,2,3)           -34.9405         calculate D2E/DX2 analytically  !
 ! D4    D(14,1,2,25)          146.5336         calculate D2E/DX2 analytically  !
 ! D5    D(2,1,4,9)            -82.8372         calculate D2E/DX2 analytically  !
 ! D6    D(2,1,4,12)           166.6437         calculate D2E/DX2 analytically  !
 ! D7    D(2,1,4,13)            27.0332         calculate D2E/DX2 analytically  !
 ! D8    D(14,1,4,9)            81.8279         calculate D2E/DX2 analytically  !
 ! D9    D(14,1,4,12)          -28.6912         calculate D2E/DX2 analytically  !
 ! D10   D(14,1,4,13)         -168.3017         calculate D2E/DX2 analytically  !
 ! D11   D(2,1,14,15)          -26.0293         calculate D2E/DX2 analytically  !
 ! D12   D(2,1,14,19)          156.6417         calculate D2E/DX2 analytically  !
 ! D13   D(4,1,14,15)          169.4425         calculate D2E/DX2 analytically  !
 ! D14   D(4,1,14,19)           -7.8864         calculate D2E/DX2 analytically  !
 ! D15   D(1,2,25,26)          -16.4307         calculate D2E/DX2 analytically  !
 ! D16   D(1,2,25,27)          166.5638         calculate D2E/DX2 analytically  !
 ! D17   D(3,2,25,26)          164.9828         calculate D2E/DX2 analytically  !
 ! D18   D(3,2,25,27)          -12.0227         calculate D2E/DX2 analytically  !
 ! D19   D(1,4,9,5)           -171.7103         calculate D2E/DX2 analytically  !
 ! D20   D(1,4,9,10)            65.3192         calculate D2E/DX2 analytically  !
 ! D21   D(1,4,9,11)           -48.1448         calculate D2E/DX2 analytically  !
 ! D22   D(12,4,9,5)           -47.7646         calculate D2E/DX2 analytically  !
 ! D23   D(12,4,9,10)         -170.735          calculate D2E/DX2 analytically  !
 ! D24   D(12,4,9,11)           75.8009         calculate D2E/DX2 analytically  !
 ! D25   D(13,4,9,5)            64.6262         calculate D2E/DX2 analytically  !
 ! D26   D(13,4,9,10)          -58.3442         calculate D2E/DX2 analytically  !
 ! D27   D(13,4,9,11)         -171.8083         calculate D2E/DX2 analytically  !
 ! D28   D(6,5,9,4)           -178.3281         calculate D2E/DX2 analytically  !
 ! D29   D(6,5,9,10)           -59.059          calculate D2E/DX2 analytically  !
 ! D30   D(6,5,9,11)            61.3752         calculate D2E/DX2 analytically  !
 ! D31   D(7,5,9,4)            -57.6243         calculate D2E/DX2 analytically  !
 ! D32   D(7,5,9,10)            61.6448         calculate D2E/DX2 analytically  !
 ! D33   D(7,5,9,11)          -177.921          calculate D2E/DX2 analytically  !
 ! D34   D(8,5,9,4)             61.0557         calculate D2E/DX2 analytically  !
 ! D35   D(8,5,9,10)          -179.6752         calculate D2E/DX2 analytically  !
 ! D36   D(8,5,9,11)           -59.2411         calculate D2E/DX2 analytically  !
 ! D37   D(1,14,15,16)        -177.0992         calculate D2E/DX2 analytically  !
 ! D38   D(1,14,15,20)           2.7739         calculate D2E/DX2 analytically  !
 ! D39   D(19,14,15,16)          0.3936         calculate D2E/DX2 analytically  !
 ! D40   D(19,14,15,20)       -179.7333         calculate D2E/DX2 analytically  !
 ! D41   D(1,14,19,18)         176.6057         calculate D2E/DX2 analytically  !
 ! D42   D(1,14,19,24)          -3.169          calculate D2E/DX2 analytically  !
 ! D43   D(15,14,19,18)         -0.8719         calculate D2E/DX2 analytically  !
 ! D44   D(15,14,19,24)        179.3534         calculate D2E/DX2 analytically  !
 ! D45   D(14,15,16,17)          0.105          calculate D2E/DX2 analytically  !
 ! D46   D(14,15,16,21)        179.7112         calculate D2E/DX2 analytically  !
 ! D47   D(20,15,16,17)       -179.768          calculate D2E/DX2 analytically  !
 ! D48   D(20,15,16,21)         -0.1618         calculate D2E/DX2 analytically  !
 ! D49   D(15,16,17,18)         -0.1525         calculate D2E/DX2 analytically  !
 ! D50   D(15,16,17,22)       -179.9948         calculate D2E/DX2 analytically  !
 ! D51   D(21,16,17,18)       -179.7562         calculate D2E/DX2 analytically  !
 ! D52   D(21,16,17,22)          0.4016         calculate D2E/DX2 analytically  !
 ! D53   D(16,17,18,19)         -0.3199         calculate D2E/DX2 analytically  !
 ! D54   D(16,17,18,23)       -179.6546         calculate D2E/DX2 analytically  !
 ! D55   D(22,17,18,19)        179.5223         calculate D2E/DX2 analytically  !
 ! D56   D(22,17,18,23)          0.1877         calculate D2E/DX2 analytically  !
 ! D57   D(17,18,19,14)          0.8627         calculate D2E/DX2 analytically  !
 ! D58   D(17,18,19,24)       -179.3568         calculate D2E/DX2 analytically  !
 ! D59   D(23,18,19,14)       -179.7967         calculate D2E/DX2 analytically  !
 ! D60   D(23,18,19,24)         -0.0162         calculate D2E/DX2 analytically  !
 ! D61   D(2,25,26,28)         -13.3068         calculate D2E/DX2 analytically  !
 ! D62   D(2,25,26,29)         108.1192         calculate D2E/DX2 analytically  !
 ! D63   D(2,25,26,30)        -132.256          calculate D2E/DX2 analytically  !
 ! D64   D(27,25,26,28)        163.7593         calculate D2E/DX2 analytically  !
 ! D65   D(27,25,26,29)        -74.8146         calculate D2E/DX2 analytically  !
 ! D66   D(27,25,26,30)         44.8102         calculate D2E/DX2 analytically  !
 ! D67   D(2,25,27,31)          38.1221         calculate D2E/DX2 analytically  !
 ! D68   D(2,25,27,32)         158.0568         calculate D2E/DX2 analytically  !
 ! D69   D(2,25,27,33)         -82.4503         calculate D2E/DX2 analytically  !
 ! D70   D(26,25,27,31)       -139.1499         calculate D2E/DX2 analytically  !
 ! D71   D(26,25,27,32)        -19.2153         calculate D2E/DX2 analytically  !
 ! D72   D(26,25,27,33)        100.2776         calculate D2E/DX2 analytically  !
 --------------------------------------------------------------------------------
 Trust Radius=3.00D-02 FncErr=1.00D-07 GrdErr=1.00D-06 EigMax=2.50D+02 EigMin=1.00D-04
 Number of steps in this run=     70 maximum allowed number of steps=    198.
 Search for a saddle point of order  1.
 GradGradGradGradGradGradGradGradGradGradGradGradGradGradGradGradGradGrad

                          Input orientation:                          
 ---------------------------------------------------------------------
 Center     Atomic      Atomic             Coordinates (Angstroms)
 Number     Number       Type             X           Y           Z
 ---------------------------------------------------------------------
      1          6           0       -0.218760    0.027580    0.254930
      2          6           0       -1.162780   -0.910610   -0.369420
      3          8           0       -0.916850   -1.493740   -1.436880
      4          6           0       -0.687880    1.291070    0.651180
      5          6           0       -1.032120    3.864890   -0.307170
      6          1           0       -1.077270    4.541320   -1.159830
      7          1           0       -1.989870    3.873660    0.210350
      8          1           0       -0.256290    4.203010    0.377670
      9          7           0       -0.732380    2.494440   -0.722530
     10          1           0       -1.426590    2.135360   -1.367830
     11          1           0        0.169140    2.427100   -1.181340
     12          1           0       -0.058690    1.891440    1.302660
     13          1           0       -1.736260    1.391390    0.906090
     14          6           0        1.215750   -0.218710    0.149870
     15          6           0        1.734980   -1.516680   -0.028390
     16          6           0        3.094710   -1.762500   -0.069600
     17          6           0        4.014110   -0.727160    0.066920
     18          6           0        3.531830    0.560330    0.242470
     19          6           0        2.167340    0.810590    0.274400
     20          1           0        1.047770   -2.345380   -0.134070
     21          1           0        3.444090   -2.779960   -0.204180
     22          1           0        5.078460   -0.921970    0.034250
     23          1           0        4.222870    1.389010    0.346190
     24          1           0        1.847870    1.837510    0.403660
     25          7           0       -2.376910   -1.131410    0.232170
     26          6           0       -2.704230   -0.790530    1.599080
     27          6           0       -3.409410   -1.814100   -0.523150
     28          1           0       -1.798000   -0.554040    2.150250
     29          1           0       -3.390030    0.061250    1.664460
     30          1           0       -3.187340   -1.644150    2.080020
     31          1           0       -2.976070   -2.604320   -1.131550
     32          1           0       -4.128260   -2.251020    0.168430
     33          1           0       -3.946880   -1.126540   -1.184400
 ---------------------------------------------------------------------
                    Distance matrix (angstroms):
                    1          2          3          4          5
     1  C    0.000000
     2  C    1.470098   0.000000
     3  O    2.379909   1.240965   0.000000
     4  C    1.404811   2.472761   3.488207   0.000000
     5  C    3.962633   4.777693   5.477632   2.767939   0.000000
     6  H    4.807539   5.509592   6.043545   3.741057   1.089323
     7  H    4.234519   4.889729   5.716093   2.925625   1.088664
     8  H    4.177402   5.246806   6.015139   2.956429   1.088689
     9  N    2.702708   3.450260   4.055848   1.826789   1.463045
    10  H    2.921462   3.216264   3.665374   2.309744   2.066853
    11  H    2.823302   3.684228   4.076477   2.320167   2.067472
    12  H    2.144140   3.444757   4.438577   1.086623   2.726467
    13  H    2.141680   2.693512   3.805905   1.083579   2.843592
    14  C    1.459286   2.530967   2.948128   2.480837   4.683759
    15  C    2.506414   2.980039   3.002761   3.770348   6.057710
    16  C    3.780052   4.352221   4.246681   4.914448   6.982455
    17  C    4.303739   5.198484   5.211854   5.150080   6.833104
    18  C    3.788259   4.957564   5.179785   4.301974   5.661436
    19  C    2.511366   3.803516   4.213151   2.919778   4.461336
    20  H    2.717786   2.645843   2.506459   4.105224   6.551592
    21  H    4.637837   4.974437   4.710808   5.863284   8.012559
    22  H    5.386175   6.254291   6.199588   6.207159   7.769799
    23  H    4.646493   5.899625   6.156810   4.921187   5.845663
    24  H    2.751168   4.148955   4.704093   2.605742   3.593034
    25  N    2.449773   1.372871   2.246950   2.982751   5.202150
    26  C    2.941701   2.503094   3.592532   3.049138   5.301196
    27  C    3.765294   2.426370   2.674021   4.292768   6.160283
    28  H    2.534663   2.622858   3.811425   2.623739   5.113944
    29  H    3.470571   3.168883   4.260625   3.137006   4.890270
    30  H    3.864984   3.261392   4.188834   4.111496   6.379120
    31  H    4.056104   2.595673   2.359449   4.856748   6.805088
    32  H    4.525891   3.298493   3.669284   4.961418   6.871436
    33  H    4.159633   2.908957   3.062624   4.453681   5.846343
                    6          7          8          9         10
     6  H    0.000000
     7  H    1.776514   0.000000
     8  H    1.775491   1.772503   0.000000
     9  N    2.121296   2.086575   2.087178   0.000000
    10  H    2.440068   2.414461   2.948143   1.013547   0.000000
    11  H    2.454369   2.947993   2.401116   1.013795   1.632864
    12  H    3.758088   2.975196   2.497600   2.217851   3.010343
    13  H    3.824180   2.590374   3.220985   2.208370   2.412488
    14  C    5.443449   5.198764   4.665876   3.452170   3.850587
    15  C    6.774088   6.556468   6.070000   4.760124   5.012686
    16  C    7.637550   7.595895   6.856862   5.761465   6.109081
    17  C    7.428590   7.565441   6.529890   5.790605   6.312982
    18  C    6.249682   6.439593   5.257114   4.780742   5.446073
    19  C    5.148092   5.164194   4.170511   3.498228   4.167525
    20  H    7.279740   6.929815   6.696556   5.190287   5.265136
    21  H    8.657777   8.600606   7.924218   6.747658   7.016978
    22  H    8.316633   8.543440   7.405600   6.783099   7.323167
    23  H    6.347963   6.692539   5.289845   5.188318   5.950740
    24  H    4.279198   4.348738   3.166031   2.890943   3.734833
    25  N    5.983861   5.020060   5.742320   4.094230   3.759640
    26  C    6.219904   4.918694   5.693829   4.479854   4.358412
    27  C    6.799677   5.907938   6.852682   5.076392   4.499255
    28  H    6.118723   4.837825   5.305510   4.322226   4.443839
    29  H    5.778970   4.313856   5.350732   4.322180   4.165551
    30  H    7.294454   5.947758   6.758575   5.568576   5.410416
    31  H    7.393674   6.688611   7.484296   5.585588   4.992122
    32  H    7.563643   6.487386   7.529305   5.902982   5.375820
    33  H    6.352944   5.547722   6.668180   4.863932   4.126197
                   11         12         13         14         15
    11  H    0.000000
    12  H    2.551293   0.000000
    13  H    3.010084   1.794870   0.000000
    14  C    3.141309   2.721370   3.446542   0.000000
    15  C    4.397107   4.074829   4.623811   1.409292   0.000000
    16  C    5.229500   5.017799   5.851262   2.441710   1.382386
    17  C    5.127505   4.997181   6.185403   2.845386   2.413889
    18  C    4.101189   3.973373   5.374367   2.445343   2.759711
    19  C    2.953826   2.679695   3.996805   1.407299   2.386379
    20  H    4.964406   4.608589   4.774537   2.152107   1.081744
    21  H    6.228452   6.030092   6.743062   3.413334   2.132565
    22  H    6.065917   5.992867   7.249286   3.927909   3.396537
    23  H    4.454627   4.415770   5.985376   3.415564   3.843558
    24  H    2.382850   2.108573   3.646566   2.166108   3.383785
    25  N    4.598193   3.956983   2.688702   3.707695   4.138111
    26  C    5.132264   3.778850   2.485553   4.218226   4.783570
    27  C    5.588113   5.319016   3.888100   4.938657   5.176678
    28  H    4.884294   3.118330   2.310074   3.632720   4.260880
    29  H    5.134541   3.818157   2.253742   4.856498   5.623285
    30  H    6.203024   4.784677   3.563460   5.014435   5.356386
    31  H    5.933803   5.886284   4.653472   4.990444   4.959225
    32  H    6.494177   5.916743   4.419610   5.717436   5.912324
    33  H    5.437829   5.514680   3.949299   5.408991   5.811377
                   16         17         18         19         20
    16  C    0.000000
    17  C    1.391353   0.000000
    18  C    2.384114   1.386017   0.000000
    19  C    2.756654   2.412112   1.387618   0.000000
    20  H    2.129288   3.384997   3.841287   3.373489   0.000000
    21  H    1.084160   2.147651   3.371162   3.840726   2.436416
    22  H    2.156975   1.082524   2.152355   3.396183   4.277954
    23  H    3.373076   2.144702   1.083976   2.136569   4.925198
    24  H    3.839096   3.373948   2.119644   1.083205   4.292538
    25  N    5.516155   6.405924   6.146161   4.941999   3.651888
    26  C    6.112031   6.891126   6.523316   5.296278   4.415753
    27  C    6.520119   7.525840   7.375968   6.214919   4.505563
    28  H    5.506970   6.176638   5.769622   4.594012   4.065147
    29  H    6.955924   7.615446   7.084016   5.777382   5.359165
    30  H    6.640710   7.533547   7.306406   6.161056   4.830122
    31  H    6.220190   7.336394   7.365847   6.331901   4.153710
    32  H    7.243384   8.284361   8.160034   7.001376   5.185720
    33  H    7.157598   8.068622   7.798243   6.577557   5.247408
                   21         22         23         24         25
    21  H    0.000000
    22  H    2.485989   0.000000
    23  H    4.276648   2.483942   0.000000
    24  H    4.923253   4.264728   2.417660   0.000000
    25  N    6.065654   7.460937   7.065594   5.166494   0.000000
    26  C    6.709055   7.939536   7.369182   5.390477   1.446299
    27  C    6.928571   8.552808   8.322702   6.467784   1.450045
    28  H    6.162594   7.204063   6.578826   4.697069   2.085072
    29  H    7.633445   8.679840   7.839453   5.672769   2.121392
    30  H    7.105174   8.545769   8.192523   6.347084   2.081886
    31  H    6.489169   8.310526   8.363919   6.734770   2.094800
    32  H    7.599941   9.303122   9.111684   7.244691   2.079619
    33  H    7.636823   9.109540   8.684211   6.699750   2.114592
                   26         27         28         29         30
    26  C    0.000000
    27  C    2.459438   0.000000
    28  H    1.086724   3.366224   0.000000
    29  H    1.095502   2.881484   1.774580   0.000000
    30  H    1.092413   2.618147   1.767353   1.766964   0.000000
    31  H    3.289388   1.087374   4.044961   3.885138   3.358682
    32  H    2.491516   1.089003   3.498209   2.851260   2.215355
    33  H    3.066732   1.094927   4.008158   3.136388   3.391351
                   31         32         33
    31  H    0.000000
    32  H    1.772656   0.000000
    33  H    1.768926   1.768475   0.000000
 Stoichiometry    C12H18N2O
 Framework group  C1[X(C12H18N2O)]
 Deg. of freedom    93
 Full point group                 C1      NOp   1
 Largest Abelian subgroup         C1      NOp   1
 Largest concise Abelian subgroup C1      NOp   1
                         Standard orientation:                         
 ---------------------------------------------------------------------
 Center     Atomic      Atomic             Coordinates (Angstroms)
 Number     Number       Type             X           Y           Z
 ---------------------------------------------------------------------
      1          6           0       -0.218760    0.027581    0.254930
      2          6           0       -1.162782   -0.910608   -0.369420
      3          8           0       -0.916854   -1.493738   -1.436880
      4          6           0       -0.687878    1.291072    0.651180
      5          6           0       -1.032113    3.864892   -0.307170
      6          1           0       -1.077261    4.541322   -1.159830
      7          1           0       -1.989863    3.873664    0.210350
      8          1           0       -0.256282    4.203011    0.377670
      9          7           0       -0.732376    2.494442   -0.722530
     10          1           0       -1.426586    2.135363   -1.367830
     11          1           0        0.169144    2.427100   -1.181340
     12          1           0       -0.058687    1.891440    1.302660
     13          1           0       -1.736258    1.391394    0.906090
     14          6           0        1.215749   -0.218712    0.149870
     15          6           0        1.734976   -1.516683   -0.028390
     16          6           0        3.094706   -1.762506   -0.069600
     17          6           0        4.014108   -0.727168    0.066920
     18          6           0        3.531831    0.560323    0.242470
     19          6           0        2.167341    0.810586    0.274400
     20          1           0        1.047765   -2.345382   -0.134070
     21          1           0        3.444084   -2.779967   -0.204180
     22          1           0        5.078458   -0.921980    0.034250
     23          1           0        4.222872    1.389002    0.346190
     24          1           0        1.847873    1.837506    0.403660
     25          7           0       -2.376913   -1.131405    0.232170
     26          6           0       -2.704232   -0.790524    1.599080
     27          6           0       -3.409414   -1.814093   -0.523150
     28          1           0       -1.798002   -0.554036    2.150250
     29          1           0       -3.390030    0.061257    1.664460
     30          1           0       -3.187344   -1.644143    2.080020
     31          1           0       -2.976076   -2.604314   -1.131550
     32          1           0       -4.128265   -2.251012    0.168430
     33          1           0       -3.946883   -1.126532   -1.184400
 ---------------------------------------------------------------------
 Rotational constants (GHZ):           0.7288152           0.4297947           0.3056233
 Standard basis: def2TZVP (5D, 7F)
 There are   648 symmetry adapted cartesian basis functions of A   symmetry.
 There are   573 symmetry adapted basis functions of A   symmetry.
   573 basis functions,   909 primitive gaussians,   648 cartesian basis functions
    56 alpha electrons       56 beta electrons
       nuclear repulsion energy      1001.2548910118 Hartrees.
 NAtoms=   33 NActive=   33 NUniq=   33 SFac= 1.00D+00 NAtFMM=   60 NAOKFM=F Big=F
 Integral buffers will be    131072 words long.
 Raffenetti 2 integral format.
 Two-electron integral symmetry is turned on.
 Nuclear repulsion after empirical dispersion term =     1001.2315296361 Hartrees.
 Force inversion solution in PCM.
 ------------------------------------------------------------------------------
 Polarizable Continuum Model (PCM)
 =================================
 Model                : PCM.
 Atomic radii         : UFF (Universal Force Field).
 Polarization charges : Total charges.
 Charge compensation  : None.
 Solution method      : Matrix inversion.
 Cavity type          : Scaled VdW (van der Waals Surface) (Alpha=1.100).
 Cavity algorithm     : GePol (No added spheres)
                        Default sphere list used, NSphG=   33.
                        Lebedev-Laikov grids with approx.  5.0 points / Ang**2.
                        Smoothing algorithm: York/Karplus (Gamma=1.0000).
                        Polarization charges: spherical gaussians, with
                                              point-specific exponents (IZeta= 3).
                        Self-potential: point-specific (ISelfS= 7).
                        Self-field    : sphere-specific E.n sum rule (ISelfD= 2).
 1st derivatives      : Analytical E(r).r(x)/FMM algorithm (CHGder, D1EAlg=3).
                        Cavity 1st derivative terms included.
 2nd derivatives      : Analytical E(r).r(xy)/FMM algorithm (CHGder, D2EAlg=3).
                        Cavity 2nd derivative terms included.
 Solvent              : Water, Eps=  78.355300 Eps(inf)=   1.777849
 ------------------------------------------------------------------------------
 One-electron integrals computed using PRISM.
   1 Symmetry operations used in ECPInt.
 ECPInt:  NShTT=   28203 NPrTT=   83820 LenC2=   25890 LenP2D=   56760.
 LDataN:  DoStor=T MaxTD1= 6 Len=  172
 NBasis=   573 RedAO= T EigKep=  7.67D-06  NBF=   573
 NBsUse=   573 1.00D-06 EigRej= -1.00D+00 NBFU=   573
 ExpMin= 9.52D-02 ExpMax= 2.70D+04 ExpMxC= 9.22D+02 IAcc=3 IRadAn=         5 AccDes= 0.00D+00
 Harris functional with IExCor= 4639 and IRadAn=       5 diagonalized for initial guess.
 HarFok:  IExCor= 4639 AccDes= 0.00D+00 IRadAn=         5 IDoV= 1 UseB2=F ITyADJ=14
 ICtDFT=  3500011 ScaDFX=  1.000000  1.000000  1.000000  1.000000
 FoFCou: FMM=F IPFlag=           0 FMFlag=      100000 FMFlg1=           0
         NFxFlg=           0 DoJE=T BraDBF=F KetDBF=T FulRan=T
         wScrn=  0.000000 ICntrl=       500 IOpCl=  0 I1Cent=   200000004 NGrid=           0
         NMat0=    1 NMatS0=      1 NMatT0=    0 NMatD0=    1 NMtDS0=    0 NMtDT0=    0
 Petite list used in FoFCou.
 Requested convergence on RMS density matrix=1.00D-08 within 128 cycles.
 Requested convergence on MAX density matrix=1.00D-06.
 Requested convergence on             energy=1.00D-06.
 No special actions if energy rises.
 Inv3:  Mode=1 IEnd=    16751307.
 Iteration    1 A*A^-1 deviation from unit magnitude is 4.00D-15 for   2353.
 Iteration    1 A*A^-1 deviation from orthogonality  is 4.53D-15 for   2361   1547.
 Iteration    1 A^-1*A deviation from unit magnitude is 4.00D-15 for   2353.
 Iteration    1 A^-1*A deviation from orthogonality  is 2.94D-15 for   2350    220.
 Error on total polarization charges =  0.01607
 SCF Done:  E(RwB97XD) =  -652.832073138     A.U. after   15 cycles
            NFock= 15  Conv=0.52D-08     -V/T= 2.0050
 DoSCS=F DFT=T ScalE2(SS,OS)=  1.000000  1.000000
 Range of M.O.s used for correlation:     1   573
 NBasis=   573 NAE=    56 NBE=    56 NFC=     0 NFV=     0
 NROrb=    573 NOA=    56 NOB=    56 NVA=   517 NVB=   517

 **** Warning!!: The largest alpha MO coefficient is  0.62851896D+02

   1 Symmetry operations used in ECPInt.
 ECPInt:  NShTT=   28203 NPrTT=   83820 LenC2=   25890 LenP2D=   56760.
 LDataN:  DoStor=T MaxTD1= 7 Len=  274
 Symmetrizing basis deriv contribution to polar:
 IMax=3 JMax=2 DiffMx= 0.00D+00
 G2DrvN: will do    34 centers at a time, making    1 passes.
 Calling FoFCou, ICntrl=  3107 FMM=F I1Cent=   0 AccDes= 0.00D+00.
 NEqPCM:  Using equilibrium solvation (IEInf=0, Eps=  78.3553, EpsInf=   1.7778)
 G2PCM: DoFxE=T DoFxN=T DoGrad=T DoDP/DQ/DG/TGxP=FFFF NFrqRd=   0 IEInf=0 SqF1=F DoCFld=F IF1Alg=4.
 End of G2Drv F.D. properties file   721 does not exist.
 End of G2Drv F.D. properties file   722 does not exist.
 End of G2Drv F.D. properties file   788 does not exist.
          IDoAtm=111111111111111111111111111111111
 NEqPCM:  Using equilibrium solvation (IEInf=0, Eps=  78.3553, EpsInf=   1.7778)
          Differentiating once with respect to nuclear coordinates.
 CalDSu exits because no D1Ps are significant.
          There are   102 degrees of freedom in the 1st order CPHF.  IDoFFX=6 NUNeed=     0.
     96 vectors produced by pass  0 Test12= 2.90D-14 1.00D-09 XBig12= 1.08D-01 9.32D-02.
 AX will form    96 AO Fock derivatives at one time.
     96 vectors produced by pass  1 Test12= 2.90D-14 1.00D-09 XBig12= 1.37D-02 3.06D-02.
     96 vectors produced by pass  2 Test12= 2.90D-14 1.00D-09 XBig12= 3.67D-04 2.57D-03.
     96 vectors produced by pass  3 Test12= 2.90D-14 1.00D-09 XBig12= 5.12D-06 2.59D-04.
     96 vectors produced by pass  4 Test12= 2.90D-14 1.00D-09 XBig12= 4.06D-08 1.86D-05.
     96 vectors produced by pass  5 Test12= 2.90D-14 1.00D-09 XBig12= 2.99D-10 1.62D-06.
     96 vectors produced by pass  6 Test12= 2.90D-14 1.00D-09 XBig12= 2.09D-12 1.40D-07.
     37 vectors produced by pass  7 Test12= 2.90D-14 1.00D-09 XBig12= 1.58D-14 1.25D-08.
     16 vectors produced by pass  8 Test12= 2.90D-14 1.00D-09 XBig12= 1.79D-15 3.81D-09.
      9 vectors produced by pass  9 Test12= 2.90D-14 1.00D-09 XBig12= 9.37D-16 2.97D-09.
      8 vectors produced by pass 10 Test12= 2.90D-14 1.00D-09 XBig12= 8.80D-16 3.00D-09.
      8 vectors produced by pass 11 Test12= 2.90D-14 1.00D-09 XBig12= 1.45D-15 4.19D-09.
      8 vectors produced by pass 12 Test12= 2.90D-14 1.00D-09 XBig12= 1.31D-15 3.54D-09.
      5 vectors produced by pass 13 Test12= 2.90D-14 1.00D-09 XBig12= 7.97D-16 2.61D-09.
      5 vectors produced by pass 14 Test12= 2.90D-14 1.00D-09 XBig12= 1.21D-15 3.25D-09.
      5 vectors produced by pass 15 Test12= 2.90D-14 1.00D-09 XBig12= 8.08D-16 2.01D-09.
      5 vectors produced by pass 16 Test12= 2.90D-14 1.00D-09 XBig12= 7.10D-16 2.14D-09.
      5 vectors produced by pass 17 Test12= 2.90D-14 1.00D-09 XBig12= 1.38D-15 2.57D-09.
      4 vectors produced by pass 18 Test12= 2.90D-14 1.00D-09 XBig12= 1.71D-15 3.31D-09.
      4 vectors produced by pass 19 Test12= 2.90D-14 1.00D-09 XBig12= 2.31D-15 3.72D-09.
      4 vectors produced by pass 20 Test12= 2.90D-14 1.00D-09 XBig12= 1.59D-15 2.90D-09.
      3 vectors produced by pass 21 Test12= 2.90D-14 1.00D-09 XBig12= 1.48D-15 2.74D-09.
      1 vectors produced by pass 22 Test12= 2.90D-14 1.00D-09 XBig12= 2.32D-16 1.18D-09.
 InvSVY:  IOpt=1 It=  1 EMax= 4.44D-16
 Solved reduced A of dimension   799 with   102 vectors.
 End of Minotr F.D. properties file   721 does not exist.
 End of Minotr F.D. properties file   722 does not exist.
 End of Minotr F.D. properties file   788 does not exist.

 **********************************************************************

            Population analysis using the SCF density.

 **********************************************************************

 Orbital symmetries:
       Occupied  (A) (A) (A) (A) (A) (A) (A) (A) (A) (A) (A) (A)
                 (A) (A) (A) (A) (A) (A) (A) (A) (A) (A) (A) (A)
                 (A) (A) (A) (A) (A) (A) (A) (A) (A) (A) (A) (A)
                 (A) (A) (A) (A) (A) (A) (A) (A) (A) (A) (A) (A)
                 (A) (A) (A) (A) (A) (A) (A) (A)
       Virtual   (A) (A) (A) (A) (A) (A) (A) (A) (A) (A) (A) (A)
                 (A) (A) (A) (A) (A) (A) (A) (A) (A) (A) (A) (A)
                 (A) (A) (A) (A) (A) (A) (A) (A) (A) (A) (A) (A)
                 (A) (A) (A) (A) (A) (A) (A) (A) (A) (A) (A) (A)
                 (A) (A) (A) (A) (A) (A) (A) (A) (A) (A) (A) (A)
                 (A) (A) (A) (A) (A) (A) (A) (A) (A) (A) (A) (A)
                 (A) (A) (A) (A) (A) (A) (A) (A) (A) (A) (A) (A)
                 (A) (A) (A) (A) (A) (A) (A) (A) (A) (A) (A) (A)
                 (A) (A) (A) (A) (A) (A) (A) (A) (A) (A) (A) (A)
                 (A) (A) (A) (A) (A) (A) (A) (A) (A) (A) (A) (A)
                 (A) (A) (A) (A) (A) (A) (A) (A) (A) (A) (A) (A)
                 (A) (A) (A) (A) (A) (A) (A) (A) (A) (A) (A) (A)
                 (A) (A) (A) (A) (A) (A) (A) (A) (A) (A) (A) (A)
                 (A) (A) (A) (A) (A) (A) (A) (A) (A) (A) (A) (A)
                 (A) (A) (A) (A) (A) (A) (A) (A) (A) (A) (A) (A)
                 (A) (A) (A) (A) (A) (A) (A) (A) (A) (A) (A) (A)
                 (A) (A) (A) (A) (A) (A) (A) (A) (A) (A) (A) (A)
                 (A) (A) (A) (A) (A) (A) (A) (A) (A) (A) (A) (A)
                 (A) (A) (A) (A) (A) (A) (A) (A) (A) (A) (A) (A)
                 (A) (A) (A) (A) (A) (A) (A) (A) (A) (A) (A) (A)
                 (A) (A) (A) (A) (A) (A) (A) (A) (A) (A) (A) (A)
                 (A) (A) (A) (A) (A) (A) (A) (A) (A) (A) (A) (A)
                 (A) (A) (A) (A) (A) (A) (A) (A) (A) (A) (A) (A)
                 (A) (A) (A) (A) (A) (A) (A) (A) (A) (A) (A) (A)
                 (A) (A) (A) (A) (A) (A) (A) (A) (A) (A) (A) (A)
                 (A) (A) (A) (A) (A) (A) (A) (A) (A) (A) (A) (A)
                 (A) (A) (A) (A) (A) (A) (A) (A) (A) (A) (A) (A)
                 (A) (A) (A) (A) (A) (A) (A) (A) (A) (A) (A) (A)
                 (A) (A) (A) (A) (A) (A) (A) (A) (A) (A) (A) (A)
                 (A) (A) (A) (A) (A) (A) (A) (A) (A) (A) (A) (A)
                 (A) (A) (A) (A) (A) (A) (A) (A) (A) (A) (A) (A)
                 (A) (A) (A) (A) (A) (A) (A) (A) (A) (A) (A) (A)
                 (A) (A) (A) (A) (A) (A) (A) (A) (A) (A) (A) (A)
                 (A) (A) (A) (A) (A) (A) (A) (A) (A) (A) (A) (A)
                 (A) (A) (A) (A) (A) (A) (A) (A) (A) (A) (A) (A)
                 (A) (A) (A) (A) (A) (A) (A) (A) (A) (A) (A) (A)
                 (A) (A) (A) (A) (A) (A) (A) (A) (A) (A) (A) (A)
                 (A) (A) (A) (A) (A) (A) (A) (A) (A) (A) (A) (A)
                 (A) (A) (A) (A) (A) (A) (A) (A) (A) (A) (A) (A)
                 (A) (A) (A) (A) (A) (A) (A) (A) (A) (A) (A) (A)
                 (A) (A) (A) (A) (A) (A) (A) (A) (A) (A) (A) (A)
                 (A) (A) (A) (A) (A) (A) (A) (A) (A) (A) (A) (A)
                 (A) (A) (A) (A) (A) (A) (A) (A) (A) (A) (A) (A)
                 (A)
 The electronic state is 1-A.
 Alpha  occ. eigenvalues --  -19.18984 -14.49404 -14.44813 -10.36604 -10.32526
 Alpha  occ. eigenvalues --  -10.32221 -10.30415 -10.29884 -10.29117 -10.27911
 Alpha  occ. eigenvalues --  -10.27789 -10.27265 -10.27081 -10.26894 -10.24677
 Alpha  occ. eigenvalues --   -1.11778  -1.04723  -1.01874  -0.95235  -0.88910
 Alpha  occ. eigenvalues --   -0.83652  -0.82672  -0.80971  -0.79402  -0.78007
 Alpha  occ. eigenvalues --   -0.72508  -0.68992  -0.66956  -0.64366  -0.62326
 Alpha  occ. eigenvalues --   -0.59775  -0.58430  -0.56328  -0.55600  -0.55123
 Alpha  occ. eigenvalues --   -0.53490  -0.53137  -0.51869  -0.51706  -0.49557
 Alpha  occ. eigenvalues --   -0.48737  -0.48543  -0.48153  -0.47247  -0.46594
 Alpha  occ. eigenvalues --   -0.45905  -0.45295  -0.44527  -0.43613  -0.41819
 Alpha  occ. eigenvalues --   -0.40850  -0.34992  -0.32971  -0.32084  -0.30939
 Alpha  occ. eigenvalues --   -0.23715
 Alpha virt. eigenvalues --    0.05888   0.06339   0.08988   0.09684   0.12355
 Alpha virt. eigenvalues --    0.13561   0.14009   0.15158   0.15714   0.16347
 Alpha virt. eigenvalues --    0.16668   0.17426   0.17543   0.18284   0.18726
 Alpha virt. eigenvalues --    0.19262   0.19788   0.20707   0.20869   0.21183
 Alpha virt. eigenvalues --    0.21830   0.22692   0.23463   0.23942   0.24378
 Alpha virt. eigenvalues --    0.24678   0.26201   0.27130   0.27307   0.28061
 Alpha virt. eigenvalues --    0.28845   0.29378   0.29948   0.30495   0.31244
 Alpha virt. eigenvalues --    0.31759   0.32021   0.32722   0.33384   0.34266
 Alpha virt. eigenvalues --    0.34644   0.35117   0.36657   0.37951   0.38010
 Alpha virt. eigenvalues --    0.38973   0.39432   0.39618   0.40971   0.41488
 Alpha virt. eigenvalues --    0.41986   0.42430   0.43458   0.43703   0.44136
 Alpha virt. eigenvalues --    0.44589   0.45299   0.45869   0.46303   0.47152
 Alpha virt. eigenvalues --    0.47408   0.48225   0.49230   0.49649   0.49811
 Alpha virt. eigenvalues --    0.50771   0.51160   0.51437   0.51894   0.52647
 Alpha virt. eigenvalues --    0.52970   0.53506   0.54153   0.54736   0.55079
 Alpha virt. eigenvalues --    0.55703   0.56532   0.56799   0.57209   0.57807
 Alpha virt. eigenvalues --    0.58319   0.58492   0.59531   0.59834   0.60162
 Alpha virt. eigenvalues --    0.60703   0.61571   0.62084   0.62264   0.63276
 Alpha virt. eigenvalues --    0.64164   0.66125   0.66891   0.68379   0.68579
 Alpha virt. eigenvalues --    0.70492   0.71258   0.71562   0.72527   0.73138
 Alpha virt. eigenvalues --    0.73990   0.74318   0.75184   0.76211   0.77596
 Alpha virt. eigenvalues --    0.79180   0.79451   0.80690   0.81428   0.82286
 Alpha virt. eigenvalues --    0.82503   0.83737   0.84011   0.85747   0.85949
 Alpha virt. eigenvalues --    0.86632   0.87911   0.89572   0.90555   0.91255
 Alpha virt. eigenvalues --    0.92772   0.93201   0.94625   0.94950   0.95820
 Alpha virt. eigenvalues --    0.97068   0.97501   0.97864   1.00252   1.00765
 Alpha virt. eigenvalues --    1.02278   1.02534   1.04371   1.06010   1.07759
 Alpha virt. eigenvalues --    1.08594   1.09562   1.10166   1.11115   1.11472
 Alpha virt. eigenvalues --    1.11935   1.12372   1.14137   1.15315   1.15626
 Alpha virt. eigenvalues --    1.16209   1.18141   1.19217   1.19774   1.22201
 Alpha virt. eigenvalues --    1.23033   1.24254   1.26169   1.27929   1.30221
 Alpha virt. eigenvalues --    1.30988   1.31758   1.32758   1.33315   1.35012
 Alpha virt. eigenvalues --    1.35275   1.37243   1.38414   1.38841   1.40338
 Alpha virt. eigenvalues --    1.41613   1.44187   1.45141   1.46303   1.47447
 Alpha virt. eigenvalues --    1.47944   1.49089   1.50383   1.51503   1.51789
 Alpha virt. eigenvalues --    1.52425   1.54091   1.55046   1.56961   1.57466
 Alpha virt. eigenvalues --    1.59464   1.59811   1.60112   1.60360   1.60668
 Alpha virt. eigenvalues --    1.62500   1.62808   1.63434   1.64043   1.65073
 Alpha virt. eigenvalues --    1.65417   1.65781   1.66333   1.66653   1.67995
 Alpha virt. eigenvalues --    1.69082   1.70539   1.71419   1.71795   1.72150
 Alpha virt. eigenvalues --    1.73493   1.74935   1.76014   1.76430   1.79171
 Alpha virt. eigenvalues --    1.79388   1.80828   1.81403   1.82133   1.82781
 Alpha virt. eigenvalues --    1.83507   1.84048   1.85437   1.85824   1.87352
 Alpha virt. eigenvalues --    1.88447   1.89775   1.92169   1.92758   1.94880
 Alpha virt. eigenvalues --    1.95834   1.96586   1.97635   1.99181   2.00558
 Alpha virt. eigenvalues --    2.00690   2.01714   2.04925   2.05268   2.05867
 Alpha virt. eigenvalues --    2.07026   2.08110   2.09215   2.10109   2.11834
 Alpha virt. eigenvalues --    2.13046   2.13769   2.15417   2.16036   2.16571
 Alpha virt. eigenvalues --    2.17739   2.19213   2.21569   2.22514   2.23700
 Alpha virt. eigenvalues --    2.24690   2.25170   2.26317   2.26638   2.27543
 Alpha virt. eigenvalues --    2.31850   2.33771   2.34815   2.35684   2.37011
 Alpha virt. eigenvalues --    2.37306   2.38449   2.39838   2.40382   2.41473
 Alpha virt. eigenvalues --    2.42199   2.43272   2.45664   2.47398   2.48039
 Alpha virt. eigenvalues --    2.48622   2.49245   2.50591   2.52903   2.53162
 Alpha virt. eigenvalues --    2.53727   2.57458   2.57954   2.58941   2.60356
 Alpha virt. eigenvalues --    2.61738   2.62300   2.62820   2.63660   2.64003
 Alpha virt. eigenvalues --    2.65128   2.66444   2.67379   2.68354   2.68639
 Alpha virt. eigenvalues --    2.70096   2.70647   2.71191   2.71966   2.72341
 Alpha virt. eigenvalues --    2.73406   2.74361   2.75467   2.76544   2.77302
 Alpha virt. eigenvalues --    2.78329   2.78886   2.79222   2.80627   2.81810
 Alpha virt. eigenvalues --    2.81951   2.83441   2.84444   2.84690   2.85453
 Alpha virt. eigenvalues --    2.86849   2.87506   2.89076   2.90692   2.91806
 Alpha virt. eigenvalues --    2.92230   2.92912   2.93777   2.95100   2.95193
 Alpha virt. eigenvalues --    2.96196   2.96835   2.98588   2.99586   2.99930
 Alpha virt. eigenvalues --    3.01407   3.04894   3.05750   3.06914   3.07066
 Alpha virt. eigenvalues --    3.09325   3.10367   3.12047   3.13102   3.14918
 Alpha virt. eigenvalues --    3.15428   3.17087   3.17512   3.17966   3.18613
 Alpha virt. eigenvalues --    3.19399   3.20334   3.21133   3.22570   3.23870
 Alpha virt. eigenvalues --    3.24321   3.25320   3.26348   3.26792   3.27449
 Alpha virt. eigenvalues --    3.28107   3.28414   3.30030   3.32673   3.32993
 Alpha virt. eigenvalues --    3.34301   3.35244   3.35932   3.36509   3.37502
 Alpha virt. eigenvalues --    3.38100   3.38376   3.38628   3.40105   3.40689
 Alpha virt. eigenvalues --    3.40825   3.41864   3.42107   3.43154   3.44420
 Alpha virt. eigenvalues --    3.45575   3.46356   3.47676   3.48244   3.49414
 Alpha virt. eigenvalues --    3.50241   3.51045   3.51758   3.52722   3.53367
 Alpha virt. eigenvalues --    3.55400   3.56240   3.57685   3.58463   3.59328
 Alpha virt. eigenvalues --    3.60573   3.61083   3.61387   3.62373   3.62673
 Alpha virt. eigenvalues --    3.63837   3.65510   3.65888   3.66688   3.67717
 Alpha virt. eigenvalues --    3.68723   3.70078   3.71521   3.73808   3.75401
 Alpha virt. eigenvalues --    3.77451   3.78641   3.80280   3.81580   3.82432
 Alpha virt. eigenvalues --    3.84309   3.86954   3.88235   3.89763   3.91121
 Alpha virt. eigenvalues --    3.93157   3.94462   3.95904   3.98396   4.00060
 Alpha virt. eigenvalues --    4.03600   4.04728   4.07649   4.09297   4.10048
 Alpha virt. eigenvalues --    4.14419   4.15429   4.17177   4.18336   4.19455
 Alpha virt. eigenvalues --    4.20572   4.22313   4.25251   4.27114   4.27312
 Alpha virt. eigenvalues --    4.28111   4.30001   4.31677   4.32568   4.33314
 Alpha virt. eigenvalues --    4.34699   4.36052   4.36880   4.38568   4.40670
 Alpha virt. eigenvalues --    4.43203   4.44944   4.45120   4.46136   4.47950
 Alpha virt. eigenvalues --    4.48369   4.50012   4.52411   4.54309   4.56257
 Alpha virt. eigenvalues --    4.57146   4.59948   4.65327   4.68775   4.72704
 Alpha virt. eigenvalues --    4.76882   4.79723   4.85229   4.86376   4.88161
 Alpha virt. eigenvalues --    4.94135   4.94977   4.97466   4.98555   5.00130
 Alpha virt. eigenvalues --    5.01064   5.03508   5.07383   5.08029   5.10049
 Alpha virt. eigenvalues --    5.12134   5.13014   5.18788   5.21003   5.24412
 Alpha virt. eigenvalues --    5.25604   5.27391   5.28468   5.31302   5.36257
 Alpha virt. eigenvalues --    5.37692   5.38486   5.39384   5.42979   5.45973
 Alpha virt. eigenvalues --    5.48635   5.51782   5.55041   5.57023   5.59290
 Alpha virt. eigenvalues --    5.59921   5.68987   5.74712   5.77318   5.80454
 Alpha virt. eigenvalues --    5.84411   5.88237   5.96161   6.12196   6.25478
 Alpha virt. eigenvalues --    6.43879   6.56353   6.71630   6.83581   6.97537
 Alpha virt. eigenvalues --    7.19434   7.24027  22.26028  22.46736  22.52161
 Alpha virt. eigenvalues --   22.62175  22.66108  22.73713  22.76082  22.91094
 Alpha virt. eigenvalues --   22.94437  23.05616  23.39147  23.61070  32.17967
 Alpha virt. eigenvalues --   32.92224  44.13583
          Condensed to atoms (all electrons):
               1          2          3          4          5          6
     1  C    6.401272   0.236852  -0.147319   0.295603   0.001123  -0.000383
     2  C    0.236852   4.731467   0.688535  -0.096125  -0.000450   0.000039
     3  O   -0.147319   0.688535   8.122101  -0.009338  -0.000052   0.000001
     4  C    0.295603  -0.096125  -0.009338   5.172489  -0.007224   0.003480
     5  C    0.001123  -0.000450  -0.000052  -0.007224   4.845053   0.409722
     6  H   -0.000383   0.000039   0.000001   0.003480   0.409722   0.501186
     7  H    0.001916   0.000090  -0.000003  -0.003443   0.413559  -0.020119
     8  H   -0.002272  -0.000130  -0.000001  -0.000182   0.417166  -0.019506
     9  N   -0.080118   0.011267   0.002910   0.053846   0.236611  -0.023546
    10  H   -0.004023   0.000065  -0.000007  -0.006921  -0.018799  -0.004372
    11  H    0.004590   0.000579   0.000209  -0.016931  -0.021760  -0.004471
    12  H   -0.074394   0.000906  -0.000343   0.463355   0.002030  -0.000164
    13  H   -0.047709  -0.005921  -0.000357   0.433539   0.002580  -0.000449
    14  C    0.094592  -0.055301   0.014602  -0.018145   0.002878  -0.000122
    15  C   -0.208419  -0.021589   0.004780   0.026751   0.000127  -0.000005
    16  C    0.033456   0.003804  -0.004276  -0.005654  -0.000016   0.000000
    17  C   -0.015328  -0.002590  -0.000077   0.002825   0.000021  -0.000001
    18  C    0.040130   0.004310   0.000604  -0.013198  -0.000459   0.000013
    19  C   -0.112956  -0.003988  -0.008224  -0.001644  -0.002735   0.000148
    20  H   -0.010491  -0.007807   0.014985   0.003624   0.000008  -0.000000
    21  H    0.000098   0.000114  -0.000118  -0.000010  -0.000000   0.000000
    22  H   -0.000003  -0.000009   0.000001   0.000005   0.000000  -0.000000
    23  H   -0.000001   0.000039   0.000003  -0.000015  -0.000004   0.000000
    24  H   -0.015957  -0.001118  -0.000165   0.011206   0.000423  -0.000105
    25  N   -0.183089   0.371783  -0.149202   0.041398   0.000047   0.000002
    26  C   -0.025662  -0.045492   0.001191  -0.023763  -0.000029  -0.000003
    27  C    0.011786  -0.067715  -0.013296  -0.003362  -0.000022   0.000001
    28  H    0.015091  -0.013647   0.000827  -0.003856  -0.000061   0.000003
    29  H    0.001837   0.006177  -0.000348  -0.009602  -0.000013  -0.000002
    30  H   -0.001872  -0.000846   0.000126   0.003295   0.000000   0.000000
    31  H    0.000951  -0.019984   0.020758   0.000851   0.000001   0.000000
    32  H    0.001237   0.010332   0.002600   0.000325   0.000001   0.000000
    33  H    0.001569   0.001794   0.000403  -0.001040   0.000003  -0.000001
               7          8          9         10         11         12
     1  C    0.001916  -0.002272  -0.080118  -0.004023   0.004590  -0.074394
     2  C    0.000090  -0.000130   0.011267   0.000065   0.000579   0.000906
     3  O   -0.000003  -0.000001   0.002910  -0.000007   0.000209  -0.000343
     4  C   -0.003443  -0.000182   0.053846  -0.006921  -0.016931   0.463355
     5  C    0.413559   0.417166   0.236611  -0.018799  -0.021760   0.002030
     6  H   -0.020119  -0.019506  -0.023546  -0.004372  -0.004471  -0.000164
     7  H    0.509856  -0.023946  -0.034222  -0.005499   0.005794  -0.000159
     8  H   -0.023946   0.504892  -0.036297   0.005609  -0.005256   0.002234
     9  N   -0.034222  -0.036297   6.533612   0.355107   0.361140  -0.060099
    10  H   -0.005499   0.005609   0.355107   0.404380  -0.020111   0.002955
    11  H    0.005794  -0.005256   0.361140  -0.020111   0.410826  -0.001997
    12  H   -0.000159   0.002234  -0.060099   0.002955  -0.001997   0.486696
    13  H    0.002450   0.000702  -0.047958  -0.001152   0.002779  -0.006569
    14  C   -0.000423   0.001541  -0.010552   0.004383  -0.001713   0.011707
    15  C   -0.000001   0.000023  -0.001593   0.000054  -0.000106   0.001578
    16  C   -0.000000  -0.000003   0.000318  -0.000014  -0.000016  -0.000523
    17  C    0.000000   0.000007  -0.000325   0.000013  -0.000007   0.000369
    18  C    0.000009  -0.000246   0.002904  -0.000142   0.000553  -0.002490
    19  C    0.000160  -0.000892   0.004335  -0.001044   0.001606  -0.000357
    20  H    0.000000   0.000000  -0.000255   0.000006  -0.000009   0.000215
    21  H   -0.000000   0.000000   0.000001   0.000000  -0.000000  -0.000002
    22  H   -0.000000   0.000000  -0.000001   0.000000   0.000000   0.000003
    23  H   -0.000000  -0.000004   0.000030  -0.000001  -0.000005  -0.000063
    24  H    0.000028   0.001085  -0.002301   0.000155   0.000255  -0.002188
    25  N   -0.000059  -0.000011   0.000322  -0.000196   0.000123   0.000249
    26  C    0.000095   0.000025  -0.001755   0.000255   0.000010   0.001063
    27  C    0.000003  -0.000001   0.000461  -0.000046  -0.000008  -0.000061
    28  H   -0.000041  -0.000011   0.001281  -0.000037  -0.000037  -0.000225
    29  H    0.000102   0.000006  -0.000055   0.000028   0.000002  -0.000150
    30  H   -0.000003  -0.000000   0.000009  -0.000004   0.000001  -0.000007
    31  H   -0.000000  -0.000000  -0.000042   0.000002  -0.000002   0.000014
    32  H   -0.000000  -0.000000  -0.000003  -0.000003  -0.000000   0.000002
    33  H    0.000010   0.000001  -0.000112   0.000088   0.000006  -0.000001
              13         14         15         16         17         18
     1  C   -0.047709   0.094592  -0.208419   0.033456  -0.015328   0.040130
     2  C   -0.005921  -0.055301  -0.021589   0.003804  -0.002590   0.004310
     3  O   -0.000357   0.014602   0.004780  -0.004276  -0.000077   0.000604
     4  C    0.433539  -0.018145   0.026751  -0.005654   0.002825  -0.013198
     5  C    0.002580   0.002878   0.000127  -0.000016   0.000021  -0.000459
     6  H   -0.000449  -0.000122  -0.000005   0.000000  -0.000001   0.000013
     7  H    0.002450  -0.000423  -0.000001  -0.000000   0.000000   0.000009
     8  H    0.000702   0.001541   0.000023  -0.000003   0.000007  -0.000246
     9  N   -0.047958  -0.010552  -0.001593   0.000318  -0.000325   0.002904
    10  H   -0.001152   0.004383   0.000054  -0.000014   0.000013  -0.000142
    11  H    0.002779  -0.001713  -0.000106  -0.000016  -0.000007   0.000553
    12  H   -0.006569   0.011707   0.001578  -0.000523   0.000369  -0.002490
    13  H    0.485444   0.007618   0.000262  -0.000026   0.000022  -0.000134
    14  C    0.007618   5.315391   0.343114   0.090026  -0.136088   0.057422
    15  C    0.000262   0.343114   5.376166   0.312017   0.076039  -0.139165
    16  C   -0.000026   0.090026   0.312017   5.095503   0.337721   0.069740
    17  C    0.000022  -0.136088   0.076039   0.337721   5.126062   0.363500
    18  C   -0.000134   0.057422  -0.139165   0.069740   0.363500   5.070184
    19  C    0.000455   0.162594   0.106324  -0.147862   0.084046   0.331251
    20  H    0.000053  -0.080382   0.461419  -0.068513   0.018201  -0.010123
    21  H   -0.000000   0.017351  -0.068700   0.464697  -0.064323   0.014288
    22  H    0.000000  -0.005569   0.014124  -0.065395   0.464635  -0.065550
    23  H   -0.000002   0.015361  -0.004526   0.012148  -0.059012   0.454852
    24  H    0.000365  -0.071432   0.005909  -0.001772   0.006113  -0.009499
    25  N   -0.000668   0.017409   0.003000  -0.000152  -0.000031   0.000050
    26  C    0.000396   0.001202   0.000147   0.000011  -0.000004   0.000010
    27  C   -0.000903  -0.001830   0.000162   0.000019  -0.000005   0.000007
    28  H   -0.007900   0.002654   0.000227  -0.000034   0.000011  -0.000001
    29  H    0.000384  -0.001108  -0.000059   0.000005  -0.000001   0.000005
    30  H    0.000759   0.000495  -0.000015  -0.000007   0.000001  -0.000002
    31  H   -0.000045   0.000270  -0.000418  -0.000039   0.000005  -0.000006
    32  H    0.000086   0.000010   0.000010  -0.000000   0.000000  -0.000000
    33  H    0.000223  -0.000155  -0.000022   0.000002  -0.000000   0.000000
              19         20         21         22         23         24
     1  C   -0.112956  -0.010491   0.000098  -0.000003  -0.000001  -0.015957
     2  C   -0.003988  -0.007807   0.000114  -0.000009   0.000039  -0.001118
     3  O   -0.008224   0.014985  -0.000118   0.000001   0.000003  -0.000165
     4  C   -0.001644   0.003624  -0.000010   0.000005  -0.000015   0.011206
     5  C   -0.002735   0.000008  -0.000000   0.000000  -0.000004   0.000423
     6  H    0.000148  -0.000000   0.000000  -0.000000   0.000000  -0.000105
     7  H    0.000160   0.000000  -0.000000  -0.000000  -0.000000   0.000028
     8  H   -0.000892   0.000000   0.000000   0.000000  -0.000004   0.001085
     9  N    0.004335  -0.000255   0.000001  -0.000001   0.000030  -0.002301
    10  H   -0.001044   0.000006   0.000000   0.000000  -0.000001   0.000155
    11  H    0.001606  -0.000009  -0.000000   0.000000  -0.000005   0.000255
    12  H   -0.000357   0.000215  -0.000002   0.000003  -0.000063  -0.002188
    13  H    0.000455   0.000053  -0.000000   0.000000  -0.000002   0.000365
    14  C    0.162594  -0.080382   0.017351  -0.005569   0.015361  -0.071432
    15  C    0.106324   0.461419  -0.068700   0.014124  -0.004526   0.005909
    16  C   -0.147862  -0.068513   0.464697  -0.065395   0.012148  -0.001772
    17  C    0.084046   0.018201  -0.064323   0.464635  -0.059012   0.006113
    18  C    0.331251  -0.010123   0.014288  -0.065550   0.454852  -0.009499
    19  C    5.484227   0.024420  -0.006321   0.015633  -0.061058   0.432011
    20  H    0.024420   0.540735  -0.008971   0.000034  -0.000009   0.000109
    21  H   -0.006321  -0.008971   0.528583  -0.007207  -0.000087   0.000037
    22  H    0.015633   0.000034  -0.007207   0.524340  -0.006990  -0.000128
    23  H   -0.061058  -0.000009  -0.000087  -0.006990   0.524910  -0.006400
    24  H    0.432011   0.000109   0.000037  -0.000128  -0.006400   0.513620
    25  N   -0.002741  -0.004204   0.000005   0.000000   0.000000  -0.000029
    26  C    0.000358   0.000092  -0.000000   0.000000  -0.000000  -0.000012
    27  C    0.000099  -0.000501   0.000001  -0.000000   0.000000   0.000001
    28  H   -0.000107   0.000223  -0.000001  -0.000000   0.000000   0.000024
    29  H    0.000036  -0.000054   0.000000  -0.000000   0.000000  -0.000008
    30  H   -0.000026   0.000081  -0.000000   0.000000  -0.000000   0.000001
    31  H    0.000056   0.000871  -0.000002   0.000000  -0.000000   0.000001
    32  H   -0.000001   0.000035  -0.000000   0.000000  -0.000000   0.000000
    33  H    0.000002  -0.000035   0.000000  -0.000000   0.000000  -0.000000
              25         26         27         28         29         30
     1  C   -0.183089  -0.025662   0.011786   0.015091   0.001837  -0.001872
     2  C    0.371783  -0.045492  -0.067715  -0.013647   0.006177  -0.000846
     3  O   -0.149202   0.001191  -0.013296   0.000827  -0.000348   0.000126
     4  C    0.041398  -0.023763  -0.003362  -0.003856  -0.009602   0.003295
     5  C    0.000047  -0.000029  -0.000022  -0.000061  -0.000013   0.000000
     6  H    0.000002  -0.000003   0.000001   0.000003  -0.000002   0.000000
     7  H   -0.000059   0.000095   0.000003  -0.000041   0.000102  -0.000003
     8  H   -0.000011   0.000025  -0.000001  -0.000011   0.000006  -0.000000
     9  N    0.000322  -0.001755   0.000461   0.001281  -0.000055   0.000009
    10  H   -0.000196   0.000255  -0.000046  -0.000037   0.000028  -0.000004
    11  H    0.000123   0.000010  -0.000008  -0.000037   0.000002   0.000001
    12  H    0.000249   0.001063  -0.000061  -0.000225  -0.000150  -0.000007
    13  H   -0.000668   0.000396  -0.000903  -0.007900   0.000384   0.000759
    14  C    0.017409   0.001202  -0.001830   0.002654  -0.001108   0.000495
    15  C    0.003000   0.000147   0.000162   0.000227  -0.000059  -0.000015
    16  C   -0.000152   0.000011   0.000019  -0.000034   0.000005  -0.000007
    17  C   -0.000031  -0.000004  -0.000005   0.000011  -0.000001   0.000001
    18  C    0.000050   0.000010   0.000007  -0.000001   0.000005  -0.000002
    19  C   -0.002741   0.000358   0.000099  -0.000107   0.000036  -0.000026
    20  H   -0.004204   0.000092  -0.000501   0.000223  -0.000054   0.000081
    21  H    0.000005  -0.000000   0.000001  -0.000001   0.000000  -0.000000
    22  H    0.000000   0.000000  -0.000000  -0.000000  -0.000000   0.000000
    23  H    0.000000  -0.000000   0.000000   0.000000   0.000000  -0.000000
    24  H   -0.000029  -0.000012   0.000001   0.000024  -0.000008   0.000001
    25  N    6.718811   0.276283   0.278111  -0.037162  -0.057821  -0.031419
    26  C    0.276283   4.951141  -0.050576   0.408508   0.435124   0.401242
    27  C    0.278111  -0.050576   4.887664   0.007421  -0.001717  -0.010554
    28  H   -0.037162   0.408508   0.007421   0.510525  -0.035154  -0.007398
    29  H   -0.057821   0.435124  -0.001717  -0.035154   0.559104  -0.036372
    30  H   -0.031419   0.401242  -0.010554  -0.007398  -0.036372   0.541589
    31  H   -0.037907   0.004157   0.405403   0.000199  -0.001094   0.001817
    32  H   -0.038714  -0.011467   0.402899   0.001249  -0.002683   0.002196
    33  H   -0.048082   0.001683   0.417364  -0.000921   0.004092  -0.001238
              31         32         33
     1  C    0.000951   0.001237   0.001569
     2  C   -0.019984   0.010332   0.001794
     3  O    0.020758   0.002600   0.000403
     4  C    0.000851   0.000325  -0.001040
     5  C    0.000001   0.000001   0.000003
     6  H    0.000000   0.000000  -0.000001
     7  H   -0.000000  -0.000000   0.000010
     8  H   -0.000000  -0.000000   0.000001
     9  N   -0.000042  -0.000003  -0.000112
    10  H    0.000002  -0.000003   0.000088
    11  H   -0.000002  -0.000000   0.000006
    12  H    0.000014   0.000002  -0.000001
    13  H   -0.000045   0.000086   0.000223
    14  C    0.000270   0.000010  -0.000155
    15  C   -0.000418   0.000010  -0.000022
    16  C   -0.000039  -0.000000   0.000002
    17  C    0.000005   0.000000  -0.000000
    18  C   -0.000006  -0.000000   0.000000
    19  C    0.000056  -0.000001   0.000002
    20  H    0.000871   0.000035  -0.000035
    21  H   -0.000002  -0.000000   0.000000
    22  H    0.000000   0.000000  -0.000000
    23  H   -0.000000  -0.000000   0.000000
    24  H    0.000001   0.000000  -0.000000
    25  N   -0.037907  -0.038714  -0.048082
    26  C    0.004157  -0.011467   0.001683
    27  C    0.405403   0.402899   0.417364
    28  H    0.000199   0.001249  -0.000921
    29  H   -0.001094  -0.002683   0.004092
    30  H    0.001817   0.002196  -0.001238
    31  H    0.546612  -0.017263  -0.037370
    32  H   -0.017263   0.551733  -0.029611
    33  H   -0.037370  -0.029611   0.569210
 Mulliken charges:
               1
     1  C   -0.212106
     2  C    0.274558
     3  O   -0.541513
     4  C   -0.292137
     5  C   -0.279731
     6  H    0.158654
     7  H    0.153848
     8  H    0.155468
     9  N   -0.264923
    10  H    0.289270
    11  H    0.283955
    12  H    0.176415
    13  H    0.181676
    14  C    0.222198
    15  C   -0.287614
    16  C   -0.125166
    17  C   -0.201799
    18  C   -0.168818
    19  C   -0.297806
    20  H    0.126243
    21  H    0.130566
    22  H    0.132076
    23  H    0.130835
    24  H    0.139775
    25  N   -0.116107
    26  C   -0.324230
    27  C   -0.260804
    28  H    0.158350
    29  H    0.139341
    30  H    0.138151
    31  H    0.132206
    32  H    0.127030
    33  H    0.122137
 Sum of Mulliken charges =  -0.00000
 Mulliken charges with hydrogens summed into heavy atoms:
               1
     1  C   -0.212106
     2  C    0.274558
     3  O   -0.541513
     4  C    0.065954
     5  C    0.188239
     9  N    0.308303
    14  C    0.222198
    15  C   -0.161371
    16  C    0.005400
    17  C   -0.069723
    18  C   -0.037984
    19  C   -0.158031
    25  N   -0.116107
    26  C    0.111613
    27  C    0.120569
 APT charges:
               1
     1  C    0.012329
     2  C   -0.170691
     3  O   -0.267070
     4  C   -0.859666
     5  C   -1.440228
     6  H    0.740790
     7  H    0.447406
     8  H    0.370291
     9  N   -0.423646
    10  H    0.477984
    11  H    0.361436
    12  H    0.422581
    13  H    0.463342
    14  C   -0.342654
    15  C   -0.538082
    16  C   -0.566150
    17  C   -0.720634
    18  C   -0.629000
    19  C   -0.606080
    20  H    0.281737
    21  H    0.725965
    22  H    0.964008
    23  H    0.737646
    24  H    0.313060
    25  N    0.141970
    26  C   -1.095514
    27  C   -1.362374
    28  H    0.059477
    29  H    0.439568
    30  H    0.654711
    31  H    0.330220
    32  H    0.690057
    33  H    0.387213
 Sum of APT charges =  -0.00000
 APT charges with hydrogens summed into heavy atoms:
               1
     1  C    0.012329
     2  C   -0.170691
     3  O   -0.267070
     4  C    0.026256
     5  C    0.118259
     9  N    0.415774
    14  C   -0.342654
    15  C   -0.256345
    16  C    0.159815
    17  C    0.243374
    18  C    0.108646
    19  C   -0.293021
    25  N    0.141970
    26  C    0.058242
    27  C    0.045116
 Electronic spatial extent (au):  <R**2>=           3800.0172
 Charge=             -0.0000 electrons
 Dipole moment (field-independent basis, Debye):
    X=             -5.4484    Y=              9.9612    Z=              1.7858  Tot=             11.4935
 Quadrupole moment (field-independent basis, Debye-Ang):
   XX=            -83.5772   YY=            -70.0101   ZZ=            -97.1197
   XY=             -3.6563   XZ=             -3.1935   YZ=             -9.7884
 Traceless Quadrupole moment (field-independent basis, Debye-Ang):
   XX=             -0.0082   YY=             13.5589   ZZ=            -13.5507
   XY=             -3.6563   XZ=             -3.1935   YZ=             -9.7884
 Octapole moment (field-independent basis, Debye-Ang**2):
  XXX=            -57.0064  YYY=             85.5920  ZZZ=             -0.0863  XYY=            -20.9724
  XXY=              5.7883  XXZ=              1.5491  XZZ=            -22.4166  YZZ=             23.8786
  YYZ=             -7.3115  XYZ=             13.0131
 Hexadecapole moment (field-independent basis, Debye-Ang**3):
 XXXX=          -2885.6830 YYYY=          -1417.6071 ZZZZ=           -415.1938 XXXY=             32.1608
 XXXZ=            -11.9580 YYYX=            -60.5451 YYYZ=            -55.2488 ZZZX=            -11.6328
 ZZZY=            -37.1109 XXYY=           -713.8706 XXZZ=           -605.6722 YYZZ=           -343.6090
 XXYZ=             -7.4770 YYXZ=             -0.1984 ZZXY=             -0.9736
 N-N= 1.001231529636D+03 E-N=-3.522690968917D+03  KE= 6.495784288016D+02
  Exact polarizability:   0.000   0.000   0.000   0.000   0.000   0.000
 Approx polarizability: 216.038  -8.039 199.923  -4.679   8.649 146.812
   1 Symmetry operations used in ECPInt.
 ECPInt:  NShTT=   28203 NPrTT=   83820 LenC2=   25890 LenP2D=   56760.
 LDataN:  DoStor=T MaxTD1= 8 Len=  415
 D2PCM: PCM CHGder 2nd derivatives, FixD1E=F FixD2E=F DoIter=F DoCFld=F I1PDM=0
 Calling FoFJK, ICntrl=    100147 FMM=F ISym2X=0 I1Cent= 0 IOpClX= 0 NMat=1 NMatS=1 NMatT=0.
 ***** Axes restored to original set *****
 -------------------------------------------------------------------
 Center     Atomic                   Forces (Hartrees/Bohr)
 Number     Number              X              Y              Z
 -------------------------------------------------------------------
      1        6          -0.000002538   -0.000002560    0.000000899
      2        6           0.000002501    0.000001840   -0.000005933
      3        8           0.000002485    0.000001424    0.000000104
      4        6          -0.000035545    0.001055008   -0.001200303
      5        6          -0.000001944    0.000004280   -0.000002690
      6        1           0.000000798   -0.000000540    0.000004439
      7        1           0.000000889   -0.000000236    0.000001166
      8        1           0.000000165    0.000001529    0.000004572
      9        7           0.000037059   -0.001056796    0.001202035
     10        1           0.000000650    0.000002185    0.000001085
     11        1           0.000001405    0.000001413    0.000000307
     12        1          -0.000002298   -0.000000956    0.000001457
     13        1          -0.000000192   -0.000000785   -0.000001571
     14        6           0.000002528    0.000006620    0.000000567
     15        6           0.000006439   -0.000000685   -0.000000460
     16        6          -0.000005697   -0.000003547   -0.000001025
     17        6           0.000002296   -0.000001934   -0.000000467
     18        6          -0.000003158    0.000000660    0.000002008
     19        6           0.000000168   -0.000004728   -0.000000564
     20        1          -0.000001123   -0.000001176   -0.000001486
     21        1           0.000000209    0.000001956   -0.000000603
     22        1          -0.000001673    0.000000498    0.000000275
     23        1           0.000001424    0.000000931    0.000001054
     24        1           0.000002002   -0.000002424    0.000000588
     25        7          -0.000005656   -0.000003391    0.000007268
     26        6          -0.000003710    0.000002765   -0.000003037
     27        6           0.000002309    0.000001431   -0.000006243
     28        1           0.000000408   -0.000000938    0.000000408
     29        1           0.000002758   -0.000004055   -0.000000740
     30        1          -0.000000750   -0.000000138   -0.000001877
     31        1          -0.000001125    0.000002011   -0.000002226
     32        1          -0.000000334    0.000000296    0.000000492
     33        1          -0.000000752    0.000000044    0.000000498
 -------------------------------------------------------------------
 Cartesian Forces:  Max     0.001202035 RMS     0.000227385
 FormGI is forming the generalized inverse of G from B-inverse, IUseBI=4.

 GradGradGradGradGradGradGradGradGradGradGradGradGradGradGradGradGradGrad
 Berny optimization.
 Internal  Forces:  Max     0.001596180 RMS     0.000125422
 Search for a saddle point.
 Step number   1 out of a maximum of   70
 All quantities printed in internal units (Hartrees-Bohrs-Radians)
 Swapping is turned off.
 Second derivative matrix not updated -- analytic derivatives used.
 ITU=  0
     Eigenvalues ---   -0.03614  -0.00166   0.00151   0.00200   0.00256
     Eigenvalues ---    0.00427   0.00618   0.00852   0.00951   0.01443
     Eigenvalues ---    0.01692   0.01789   0.01832   0.02222   0.02246
     Eigenvalues ---    0.02355   0.02515   0.02695   0.02811   0.02927
     Eigenvalues ---    0.03040   0.03420   0.04651   0.04694   0.04788
     Eigenvalues ---    0.04867   0.05100   0.05841   0.06075   0.06109
     Eigenvalues ---    0.06250   0.06260   0.09030   0.09141   0.10187
     Eigenvalues ---    0.10832   0.10863   0.11734   0.12134   0.12263
     Eigenvalues ---    0.12610   0.13030   0.13047   0.13407   0.16514
     Eigenvalues ---    0.16850   0.17174   0.17746   0.17918   0.18137
     Eigenvalues ---    0.18324   0.19073   0.19445   0.19457   0.19756
     Eigenvalues ---    0.20858   0.21182   0.23799   0.24854   0.26902
     Eigenvalues ---    0.30187   0.32500   0.32790   0.33545   0.33614
     Eigenvalues ---    0.34299   0.34506   0.34649   0.34740   0.34871
     Eigenvalues ---    0.35012   0.35096   0.35608   0.35872   0.35888
     Eigenvalues ---    0.36057   0.36378   0.36489   0.37181   0.38415
     Eigenvalues ---    0.38980   0.40644   0.42951   0.44020   0.45347
     Eigenvalues ---    0.45404   0.45956   0.46130   0.47250   0.49627
     Eigenvalues ---    0.51470   0.54439   0.72986
 Eigenvectors required to have negative eigenvalues:
                          R6        R2        A10       D6        A11
   1                    0.87014  -0.16829  -0.16774   0.15514  -0.15375
                          D9        D10       D7        D3        D1
   1                    0.14981  -0.13932  -0.13399  -0.08092  -0.07589
 RFO step:  Lambda0=5.329761092D-05 Lambda=-1.66214290D-03.
 Linear search not attempted -- option 19 set.
 Maximum step size (   0.030) exceeded in Quadratic search.
    -- Step size scaled by   0.982
 Iteration  1 RMS(Cart)=  0.01266832 RMS(Int)=  0.00007518
 Iteration  2 RMS(Cart)=  0.00009991 RMS(Int)=  0.00000475
 Iteration  3 RMS(Cart)=  0.00000001 RMS(Int)=  0.00000475
 Variable       Old X    -DE/DX   Delta X   Delta X   Delta X     New X
                                 (Linear)    (Quad)   (Total)
    R1        2.77808  -0.00000   0.00000   0.00290   0.00290   2.78098
    R2        2.65471   0.00000   0.00000  -0.00618  -0.00618   2.64853
    R3        2.75765   0.00000   0.00000   0.00103   0.00103   2.75868
    R4        2.34508  -0.00000   0.00000  -0.00056  -0.00056   2.34453
    R5        2.59435   0.00001   0.00000  -0.00246  -0.00246   2.59189
    R6        3.45213  -0.00160   0.00000   0.02462   0.02462   3.47675
    R7        2.05342  -0.00000   0.00000  -0.00043  -0.00043   2.05299
    R8        2.04767  -0.00000   0.00000  -0.00010  -0.00010   2.04756
    R9        2.05852  -0.00000   0.00000   0.00035   0.00035   2.05887
   R10        2.05728  -0.00000   0.00000   0.00023   0.00023   2.05751
   R11        2.05732   0.00000   0.00000   0.00024   0.00024   2.05756
   R12        2.76475   0.00000   0.00000  -0.00107  -0.00107   2.76369
[...]
 872931,-0.12004085,0.00003664,0.00090514,0.00085123,0.26608015,-0.0000
 1896,-0.00030963,0.00066003,-0.00077416,0.00033704,0.00034719,0.000138
 48,-0.00010687,0.00012372,-0.00077915,-0.00113584,0.00126138,0.0000106
 3,-0.00004685,-0.00002022,-0.00000214,0.00001542,-0.00000135,-0.000000
 05,-0.00000394,0.00000717,0.00000028,-0.00000375,0.00000683,0.00007954
 ,-0.00002654,-0.00009496,0.00001212,0.00000770,0.00001361,-0.00001235,
 0.00001272,-0.00000877,0.00000825,0.00002368,-0.00012107,-0.00017795,-
 0.00133787,0.00105791,-0.00035668,0.00008291,-0.00007375,0.00016817,-0
 .00006693,-0.00001784,-0.00007912,-0.00001477,0.00000678,0.00010474,0.
 00001199,-0.00000336,-0.00002737,-0.00001028,0.00000689,0.00013616,0.0
 0003932,0.00000488,-0.00001266,-0.00000603,-0.00000077,0.00000980,-0.0
 0001256,-0.00000147,0.00000810,-0.00000215,0.00000013,0.00001386,0.000
 00767,0.00000186,-0.00001284,-0.00000240,-0.00000441,-0.00421988,-0.00
 279620,-0.00342603,-0.04727976,-0.06001197,-0.02952428,0.00050512,0.00
 087308,-0.00181614,0.05469367,0.06222443,-0.00006398,-0.00007130,0.001
 17075,-0.00410687,-0.00123240,0.00112658,0.00051222,-0.00002123,-0.000
 56157,0.00029823,0.00157948,-0.00060195,-0.00001695,0.00005230,0.00009
 372,0.00000913,-0.00004733,-0.00001187,0.00000781,0.00000466,-0.000011
 65,-0.00000541,0.00000330,-0.00001122,-0.00004772,-0.00026263,0.000208
 99,-0.00001658,0.00000179,-0.00002483,0.00001787,0.00000300,-0.0000117
 9,-0.00004565,-0.00009161,-0.00000637,0.00003868,0.00065839,-0.0003396
 6,0.00130089,-0.00023247,0.00010868,-0.00027796,0.00022451,0.00006181,
 0.00012274,0.00000934,0.00000569,-0.00020639,0.00003947,0.00000659,0.0
 0013078,-0.00003102,-0.00005739,-0.00040100,-0.00017435,-0.00007312,-0
 .00000573,0.00001554,-0.00001227,-0.00001657,0.00002248,0.00000119,-0.
 00001400,0.00000378,0.00000573,-0.00002338,-0.00001650,0.00000240,0.00
 001892,-0.00000418,0.00002122,-0.02813858,-0.01038486,-0.02121252,-0.1
 0793976,-0.02661223,-0.11432146,0.00284755,0.00182058,-0.00520293,0.12
 364411,0.03286072,0.13070014,0.00008332,-0.00009701,0.00010256,0.00292
 281,0.00215042,-0.00098442,-0.00097772,0.00023744,0.00190724,-0.000523
 72,0.00107773,-0.00039397,-0.00001137,-0.00001288,0.00006778,0.0000051
 4,-0.00002666,-0.00001233,0.00000514,-0.00000710,0.00000047,-0.0000021
 2,-0.00000230,-0.00000400,0.00018856,-0.00037771,0.00019304,-0.0000018
 6,0.00001521,0.00000646,-0.00001036,0.00004238,-0.00003487,0.00013271,
 -0.00006586,-0.00004880,-0.00052990,-0.00077122,0.00054883,0.00015762,
 -0.00024137,-0.00002664,0.00000608,0.00006360,-0.00000479,0.00001315,-
 0.00001494,-0.00000593,-0.00002703,0.00000380,0.00000249,0.00000335,-0
 .00003241,-0.00000695,-0.00008856,0.00001294,-0.00001649,0.00002555,-0
 .00003754,0.00001645,-0.00000351,0.00000483,-0.00000102,-0.00000525,-0
 .00000185,0.00000157,-0.00000920,-0.00000270,0.00000080,0.00000094,-0.
 00001406,0.00000137,-0.00507578,0.00060635,0.00794004,-0.16093052,0.12
 394195,0.01694315,0.00038309,-0.00047421,-0.00025527,-0.01541472,0.020
 59470,0.00311762,0.17088896,0.00044472,0.00045805,0.00037050,-0.004128
 80,-0.00135643,0.00201249,0.00078060,-0.00024498,-0.00103236,-0.000007
 67,-0.00014839,0.00040848,0.00001017,-0.00002129,-0.00008784,-0.000006
 04,0.00004111,0.00000993,0.00000429,0.00000394,0.00000280,0.00000151,0
 .00000225,0.00000885,-0.00001055,0.00031628,-0.00023572,0.00000359,-0.
 00001061,0.00002358,-0.00001462,-0.00000123,0.00000801,0.00006858,0.00
 002663,0.00001740,-0.00010921,-0.00035381,-0.00000162,-0.00037520,0.00
 012804,0.00008519,0.00008542,-0.00010034,-0.00001727,-0.00004787,0.000
 01312,-0.00000285,0.00008247,-0.00000778,-0.00000255,-0.00004031,0.000
 00933,-0.00000062,0.00014141,0.00004791,0.00000952,-0.00001841,0.00001
 722,-0.00001059,0.00000466,-0.00000953,0.00000047,0.00000726,-0.000000
 80,0.00000053,0.00000996,0.00000660,0.00000084,-0.00000799,0.00000338,
 -0.00000287,0.00182970,0.00434707,-0.00839051,0.12501653,-0.18980745,-
 0.01995174,0.00096217,0.00045899,0.00032739,-0.00549221,0.00613387,0.0
 0174845,-0.13790398,0.20164869,0.00072735,0.00086163,0.00062533,-0.005
 22998,-0.00609553,0.00025156,0.00244469,0.00085789,-0.00354501,0.00053
 012,-0.00076374,-0.00022033,0.00001078,-0.00002756,-0.00010632,-0.0000
 1123,0.00004502,0.00001496,-0.00000935,0.00000202,0.00000920,0.0000037
 1,-0.00000090,0.00000905,-0.00014228,0.00037344,-0.00021008,0.00000999
 ,-0.00000131,0.00000357,-0.00001128,-0.00002328,0.00003697,-0.00002953
 ,0.00007086,0.00000365,0.00032923,0.00029866,-0.00008801,-0.00036336,0
 .00016013,0.00028248,0.00010985,-0.00011374,-0.00001329,-0.00006769,0.
 00000338,-0.00000138,0.00009309,0.00001176,-0.00000246,-0.00001485,0.0
 0000983,0.00000856,0.00014390,0.00002668,-0.00000721,-0.00003454,0.000
 03101,-0.00002245,0.00000960,-0.00001296,0.00000198,0.00001015,0.00000
 044,-0.00000361,0.00001578,0.00000732,0.,-0.00001360,0.00000758,-0.000
 00929,0.02921397,-0.02346536,-0.01751351,0.01448588,-0.01886318,-0.049
 53360,0.00298018,0.00045231,0.00111763,-0.00874963,0.01256974,0.002671
 12,-0.02781311,0.02639276,0.06365139,-0.00173208,-0.00131522,0.0008294
 8,0.00216580,-0.00022492,0.00017175,-0.00030034,0.00008329,0.00018886,
 -0.00064719,0.00085897,0.00031721,-0.00000537,0.00003088,0.00011190,0.
 00000828,-0.00005140,-0.00001246,0.00000576,-0.00000086,-0.00000764,-0
 .00000516,0.00000445,-0.00001183,0.00015943,-0.00030648,0.00013504,-0.
 00001386,0.00000082,-0.00001485,0.00001474,0.00004185,-0.00006240,-0.0
 0005618,-0.00007984,0.00001957,-0.00022913,0.00004103,0.00003504,0.001
 34510,-0.00022642,-0.00024683,-0.00026111,0.00026047,0.00006797,0.0001
 1114,-0.00001631,0.00002425,-0.00022382,0.00004955,0.00000850,0.000141
 64,-0.00002950,-0.00003590,-0.00040782,-0.00017887,-0.00005300,0.00001
 092,-0.00000064,-0.00001117,-0.00001642,0.00002497,0.00000086,-0.00001
 587,0.00000357,0.00000259,-0.00002389,-0.00001780,0.00000033,0.0000200
 2,-0.00000797,0.00002447,-0.00399857,-0.00667799,0.00639785,-0.0871446
 6,-0.08319829,0.03263421,-0.00046886,0.00118778,-0.00165820,-0.0070270
 4,-0.02225641,0.01032779,0.00869908,0.01909248,-0.00723449,0.08948552,
 -0.00064645,-0.00055467,0.00026832,0.00174657,-0.00016025,-0.00168677,
 0.00013814,-0.00021970,0.00081061,0.00009552,0.00015425,0.00015321,-0.
 00001057,0.00005318,0.00007617,0.00000816,-0.00003691,-0.00000768,0.00
 000509,0.00000587,-0.00001058,-0.00000369,0.00000371,-0.00000915,-0.00
 000861,-0.00011129,0.00005231,-0.00000779,0.00000398,-0.00002735,0.000
 02275,-0.00000562,-0.00001801,-0.00016871,-0.00006172,0.00008348,-0.00
 007533,0.00039509,-0.00011314,0.00057820,-0.00002862,-0.00018246,-0.00
 014967,0.00010149,0.00001686,0.00005218,0.00000787,0.00000588,-0.00011
 076,0.00001737,0.00000180,0.00005422,-0.00000551,-0.00001791,-0.000188
 77,-0.00007404,-0.00001489,0.00002458,-0.00000186,0.00000993,-0.000013
 27,0.00001521,0.00000058,-0.00001049,0.00000217,0.00000509,-0.00001664
 ,-0.00000983,0.00000070,0.00002091,0.00000380,0.00001160,0.00045831,0.
 00929183,-0.00070532,-0.08473732,-0.23998435,0.07516829,-0.00034695,0.
 00308936,-0.00107247,-0.00063022,-0.00396561,0.00126376,-0.00969907,-0
 .02102736,0.00698154,0.09242407,0.25375403,0.00082520,0.00066500,0.001
 43825,-0.00998485,0.00232252,-0.00007897,0.00228135,-0.00219990,-0.002
 60049,0.00060973,-0.00137865,0.00031383,0.00001941,-0.00003846,-0.0001
 5579,-0.00001399,0.00006610,0.00002256,-0.00001030,0.00000486,0.000010
 02,0.00000671,0.00000171,0.00001414,-0.00025246,0.00066006,-0.00041875
 ,0.00001041,-0.00000097,0.00001277,-0.00000479,-0.00003627,0.00005248,
 -0.00001332,0.00007727,-0.00003879,-0.00027842,0.00017164,-0.00008058,
 -0.00029953,0.00012553,0.00039762,0.00002632,-0.00013674,-0.00001702,0
 .00001375,0.00003595,-0.00002539,0.00006421,-0.00003765,-0.00000346,-0
 .00003759,0.00004805,-0.00001102,0.00014875,0.00001575,-0.00003368,-0.
 00004825,0.00007038,-0.00001306,0.00001177,-0.00001243,0.00000159,0.00
 001219,0.00000076,0.00000232,0.00001617,0.00000714,0.00000258,-0.00001
 341,0.00001244,-0.00000029,0.02386956,0.02526520,-0.02814595,0.0295956
 5,0.07134219,-0.07560199,0.00171761,0.00178114,0.00143973,-0.00382142,
 -0.01382906,0.00691512,-0.00192748,-0.00177984,0.00221277,-0.04219744,
 -0.08230353,0.09435649,-0.00135612,0.00038952,-0.00061551,0.00401323,-
 0.00234521,-0.00386728,0.00067203,0.00086591,0.00199883,-0.00018325,0.
 00054522,-0.00009686,-0.00001751,0.00004605,0.00010648,0.00001062,-0.0
 0004868,-0.00001373,0.00000582,0.00000059,-0.00001104,-0.00000339,-0.0
 0000023,-0.00001093,0.00002611,-0.00034625,0.00023995,-0.00000931,0.00
 001709,-0.00003377,0.00001581,0.00000228,-0.00001777,-0.00005702,-0.00
 005141,0.00002500,-0.00005014,0.00008167,0.00008044,0.00040311,-0.0002
 7392,-0.00039786,-0.00008756,0.00010530,0.00004031,0.00003632,-0.00000
 285,0.00001363,-0.00009734,0.00003031,0.00000357,0.00005383,-0.0000512
 8,0.00001714,-0.00025236,-0.00002773,0.00003435,0.00002668,-0.00001694
 ,-0.00001484,-0.00001378,0.00001435,0.00000050,-0.00001117,0.00000227,
 -0.00000171,-0.00002210,-0.00000779,-0.00000414,0.00001583,-0.00000596
 ,-0.00000379,-0.00744966,-0.03212600,0.00182674,-0.00045455,-0.0004633
 3,0.00215316,-0.04854514,0.01762975,-0.00325974,-0.00001182,0.00006216
 ,0.00005678,0.00003221,0.00006225,-0.00050682,0.00040722,0.00070739,-0
 .00009983,0.05321170,-0.00119204,-0.00066331,-0.00026319,0.00672618,-0
 .00066413,-0.00479830,-0.00095723,0.00086192,0.00301034,-0.00036425,0.
 00082218,-0.00012986,-0.00002429,0.00005880,0.00016174,0.00001741,-0.0
 0007170,-0.00002135,0.00000960,0.00000113,-0.00001451,-0.00000567,-0.0
 0000008,-0.00001487,0.00006374,-0.00052590,0.00031476,-0.00001187,0.00
 002224,-0.00004186,0.00002004,0.00001052,-0.00003031,-0.00006512,-0.00
 007953,0.00001679,0.00000520,0.00007959,0.00009317,0.00064135,-0.00023
 996,-0.00037379,-0.00015285,0.00016033,0.00001996,0.00006397,-0.000004
 34,0.00000804,-0.00013986,0.00002236,0.00000313,0.00006220,-0.00004188
 ,0.00000313,-0.00028797,-0.00005265,-0.00000031,0.00004860,-0.00003693
 ,0.00002053,-0.00001804,0.00002069,-0.00000107,-0.00001580,0.00000162,
 0.00000276,-0.00002663,-0.00001177,-0.00000066,0.00002199,-0.00000611,
 0.00000058,-0.01645498,-0.01657724,-0.00431742,-0.00046762,0.00021928,
 0.00194408,0.01674064,-0.28382291,0.05508151,0.00003236,0.00017785,-0.
 00018821,0.00048369,-0.00028716,-0.00021779,0.00027070,-0.00030549,-0.
 00078874,-0.00769016,0.31505753,-0.00048093,0.00035484,-0.00036256,0.0
 0168175,-0.00036442,-0.00103071,-0.00102438,-0.00015406,0.00126412,0.0
 0000057,0.00011404,-0.00011791,-0.00000582,0.00002253,0.00002999,0.000
 00344,-0.00001481,-0.00000357,0.00000133,0.00000051,-0.00000458,-0.000
 00055,0.00000006,-0.00000419,-0.00002168,-0.00009814,0.00009812,-0.000
 00362,0.00000397,-0.00001666,0.00000705,-0.00000442,-0.00000115,-0.000
 03181,-0.00002683,0.00001951,-0.00008331,0.00003254,0.00006096,0.00011
 296,-0.00011457,-0.00012257,-0.00001202,0.00004971,-0.00000377,0.00000
 079,-0.00000878,0.00000986,-0.00002741,0.00001396,0.00000213,0.0000149
 3,-0.00002488,0.00001128,-0.00008313,-0.00000139,0.00001823,0.00002116
 ,-0.00002062,-0.00000081,-0.00000442,0.00000506,-0.00000004,-0.0000049
 2,0.00000056,-0.00000255,-0.00000819,-0.00000259,-0.00000288,0.0000044
 2,-0.00000260,-0.00000384,-0.00360911,-0.02216654,0.00211423,-0.000896
 81,-0.00178407,0.00307296,-0.00225308,0.05524677,-0.06249898,0.0000289
 5,0.00022705,0.00009675,0.00018017,0.00037221,-0.00009878,0.00054929,0
 .00132445,0.00003477,0.00761580,-0.05416187,0.06063803,-0.00123984,-0.
 00108793,-0.00006954,0.00200490,0.00149562,-0.00542431,-0.00050611,-0.
 00006658,0.00074989,-0.00044062,0.00108205,-0.00038255,-0.00002453,0.0
 0006213,0.00017672,0.00001902,-0.00007809,-0.00002423,0.00001088,-0.00
 000059,-0.00001735,-0.00000547,-0.00000010,-0.00001575,0.00007856,-0.0
 0063510,0.00042948,-0.00001765,0.00000061,-0.00002838,0.00002171,0.000
 00859,-0.00002771,-0.00003224,-0.00007344,0.00000150,0.00000820,-0.000
 05851,0.00010636,0.00049347,-0.00043516,-0.00005743,-0.00012317,0.0001
 3312,0.00002923,0.00005237,-0.00000527,0.00000321,-0.00011789,0.000022
 20,0.00000429,0.00004838,-0.00005197,-0.00003157,-0.00029575,-0.000025
 04,-0.00003264,0.00004335,-0.00003947,0.00002338,-0.00001526,0.0000180
 7,-0.00000076,-0.00001488,0.00000132,0.00000323,-0.00002782,-0.0000106
 4,0.00000311,0.00002306,-0.00000740,0.00001590,-0.03008544,0.00149102,
 0.00571390,0.00095694,-0.00054518,0.00191476,-0.25392986,0.08513393,0.
 06333840,0.00019319,-0.00010294,0.00004665,-0.00007006,-0.00024731,-0.
 00087396,0.00010725,0.00040416,-0.00031324,-0.00060648,0.00147741,0.00
 092030,0.28483952,-0.00065334,-0.00045107,0.00044768,-0.00107944,-0.00
 076071,-0.00301383,-0.00005417,0.00049042,0.00022424,-0.00018007,0.000
 42477,-0.00008669,-0.00000786,0.00001431,0.00005844,0.00000673,-0.0000
 2486,-0.00000899,0.00000560,0.00000096,-0.00000498,-0.00000272,0.00000
 076,-0.00000387,0.00003486,-0.00021423,0.00011997,-0.00000318,0.000001
 24,-0.00000418,0.00000308,0.00000600,-0.00000966,-0.00000441,-0.000025
 94,0.00000133,0.00005332,-0.00002925,0.00002422,0.00010503,-0.00023220
 ,0.00003843,-0.00004051,0.00003020,-0.00000098,0.00001622,0.00000335,0
 .00000120,-0.00003573,0.00000769,0.00000080,0.00001079,-0.00002205,-0.
 00001977,-0.00012310,0.00000611,-0.00003397,0.00001152,-0.00000587,0.0
 0001021,-0.00000610,0.00000597,-0.00000046,-0.00000463,0.00000072,0.00
 000221,-0.00001149,-0.00000344,0.00000303,0.00000933,-0.00000247,0.000
 00945,-0.02276338,0.00623288,0.00455516,-0.00069467,0.00129988,0.00086
 973,0.09106065,-0.08593519,-0.02778283,-0.00003056,-0.00003819,0.00018
 885,0.00050414,-0.00031847,0.00025822,0.00015038,-0.00044844,0.0000035
 7,0.02770751,-0.01103760,-0.00951838,-0.08866235,0.08951662,-0.0006172
 0,-0.00088119,0.00055144,0.00090281,-0.00159038,-0.00533031,0.00269759
 ,0.00158920,0.00181413,-0.00024528,0.00041359,-0.00007314,-0.00000651,
 0.00000927,0.00006530,0.00000825,-0.00002814,-0.00000962,0.00000468,0.
 00000005,-0.00000425,-0.00000304,-0.00000026,-0.00000360,0.00004127,-0
 .00027518,0.00015607,-0.00000344,-0.00000355,-0.00000562,0.00000356,0.
 00000736,-0.00001197,0.00000297,0.00002112,-0.00003374,0.00001883,-0.0
 0008238,0.00005482,0.00016939,-0.00016074,0.00005306,-0.00003029,0.000
 01748,0.00003496,0.00001219,0.00001287,0.00000289,-0.00003152,0.000021
 90,0.00000104,0.00003848,-0.00002104,-0.00002659,-0.00012984,-0.000020
 75,-0.00002633,-0.00000754,0.00003096,-0.00000912,-0.00000294,0.000002
 78,0.00000152,-0.00000073,0.00000234,0.00000148,-0.00000689,-0.0000025
 6,0.00000234,0.00000736,0.00000145,0.00001181,-0.02289713,0.00334670,0
 .00361439,-0.00159764,0.00121161,0.00045021,0.06889860,-0.02709283,-0.
 07079311,0.00021744,0.00011078,0.00026493,0.00038351,-0.00026296,0.000
 39628,-0.00041370,-0.00011872,-0.00039281,-0.00694103,0.00362452,0.002
 18406,-0.06685642,0.03257776,0.07109010,0.00034965,-0.00032355,0.00033
 551,0.00125093,-0.00077025,-0.00335487,-0.00215673,0.00044777,0.001988
 57,0.00003218,-0.00010889,-0.00001223,0.00000155,-0.00000322,0.0000025
 3,0.00000169,-0.00000115,0.00000004,-0.00000046,0.00000075,0.00000046,
 0.00000028,-0.00000005,0.00000092,-0.00001598,0.00000079,-0.00001058,0
 .00000129,0.00000442,-0.00000374,0.00000150,-0.00000276,0.00000237,-0.
 00000868,0.00003197,-0.00003947,-0.00002183,0.00001741,0.00002404,0.00
 006209,0.00011135,-0.00001990,-0.00000534,-0.00002631,0.00001239,0.000
 00263,0.00001275,0.00001111,-0.00000002,0.00000910,-0.00000010,0.00002
 224,0.00000808,0.00000198,0.00000104,-0.00002815,-0.00001338,-0.000015
 93,0.00003409,-0.00001301,0.00000176,-0.00000198,-0.00000024,0.0000033
 7,0.00000152,-0.00000231,0.00000426,0.00000019,0.00000163,-0.00000088,
 0.00000439,0.00000051,0.00214250,0.00313367,-0.02658271,-0.00346575,-0
 .00123927,-0.00075812,-0.05302949,-0.00777720,0.04398218,0.00017454,-0
 .00043338,-0.00117127,0.00013403,-0.00019760,-0.00001259,-0.00010450,0
 .00008406,0.00008755,0.00029818,0.00118930,-0.00259172,-0.00134775,-0.
 00532145,0.02638419,0.05568761,0.00003279,-0.00039706,-0.00005092,0.00
 091406,0.00104079,-0.00073943,-0.00041616,-0.00089671,0.00021997,-0.00
 005371,0.00015927,-0.00006572,-0.00000166,0.00000865,0.00002833,0.0000
 0247,-0.00001216,-0.00000376,0.00000167,0.00000098,-0.00000338,-0.0000
 0074,0.00000158,-0.00000225,0.00000923,-0.00008800,0.00006039,-0.00000
 300,0.00000018,-0.00000133,0.00000392,0.00000098,-0.00000283,-0.000005
 50,-0.00001392,0.00000107,0.00001976,0.00003531,0.00000129,0.00014534,
 0.00001707,-0.00002975,-0.00002911,0.00002310,0.00003150,0.00001319,0.
 00000239,-0.00000811,-0.00002169,0.00000167,0.00000421,0.00001206,0.,-
 0.00000923,-0.00002891,-0.00002101,0.00000493,0.00000422,-0.00000234,-
 0.00000663,-0.00000134,0.00000293,0.00000008,-0.00000189,0.00000007,0.
 00000087,-0.00000236,-0.00000195,-0.00000005,0.00000347,-0.00000071,0.
 00000276,0.00216855,0.00101279,-0.02091180,-0.00320893,-0.00081311,-0.
 00104590,-0.00684131,-0.05495547,0.04208428,0.00004369,-0.00004929,-0.
 00113012,0.00004369,0.00003315,0.00016314,0.00006369,0.00010205,-0.000
 13503,-0.00481190,-0.00308736,0.03070072,0.00080283,0.00150811,-0.0124
 6108,0.01114358,0.05638801,-0.00044875,-0.00003282,0.00003212,0.003698
 80,-0.00132210,-0.00284777,0.00246634,0.00144584,0.00266392,0.00003328
 ,0.00018436,-0.00004984,-0.00000213,0.00001358,0.00002499,0.00000274,-
 0.00001207,-0.00000298,0.00000106,0.00000072,-0.00000350,-0.00000027,0
 .00000013,-0.00000290,-0.00000761,-0.00008067,0.00006960,-0.00000124,0
 .00000003,-0.00001183,0.00000549,-0.00000153,-0.00000265,-0.00002097,0
 .00000899,0.00001262,-0.00001637,0.00005742,0.00001323,0.00016224,-0.0
 0005529,-0.00001990,-0.00000495,0.00003476,0.00001415,-0.00000719,-0.0
 0000230,0.00001237,-0.00001974,0.00002755,0.00000407,0.00003690,-0.000
 01938,-0.00000761,-0.00008527,-0.00002601,0.00000454,-0.00000208,0.000
 01140,-0.00001414,-0.00000195,0.00000247,0.00000061,-0.00000127,0.0000
 0166,-0.00000226,-0.00000369,-0.00000194,-0.00000189,0.00000338,0.0000
 0112,0.00000261,-0.00074905,-0.00170627,-0.01825421,-0.00404520,-0.000
 47137,-0.00012930,0.03438296,0.03677462,-0.31420104,0.00027931,-0.0003
 2319,-0.00100082,0.00012253,-0.00002006,0.00007880,0.00011295,0.000053
 39,0.00039099,0.00168400,0.00105908,-0.00537947,0.00067548,0.00109410,
 -0.00403064,-0.03824974,-0.03669620,0.34263812\\0.00000028,0.00000020,
 0.00000152,0.00000146,0.00000123,-0.00000048,-0.00000339,-0.00000400,0
 .00000398,-0.00000076,0.00000090,-0.00000135,-0.00000272,-0.00000112,-
 0.00000542,-0.00000399,-0.00000255,-0.00000649,-0.00000294,-0.00000113
 ,-0.00000513,-0.00000301,0.00000045,-0.00000626,-0.00000215,-0.0000013
 4,-0.00000350,-0.00000235,-0.00000355,-0.00000267,-0.00000218,-0.00000
 189,-0.00000354,-0.00000089,0.00000187,-0.00000238,-0.00000013,0.00000
 019,-0.00000143,-0.00000030,0.00000091,0.00000038,0.00000125,0.0000013
 4,0.00000195,0.00000159,0.00000241,0.00000221,0.00000080,0.00000339,0.
 00000028,-0.00000034,0.00000338,-0.00000156,-0.00000034,0.00000234,-0.
 00000173,0.00000317,0.00000068,0.00000427,0.00000242,0.00000261,0.0000
 0364,0.00000091,0.00000424,0.00000027,-0.00000093,0.00000394,-0.000003
 08,-0.00000161,0.00000227,-0.00000320,-0.00000129,-0.00000244,0.000007
 72,0.00000291,-0.00000018,0.00000373,0.00000452,0.00000089,-0.00000096
 ,0.00000147,0.00000214,0.00000220,0.00000093,0.00000012,0.00000084,0.0
 0000272,0.00000161,0.00000470,0.00000102,-0.00000764,0.00000500,0.0000
 0330,-0.00000401,0.00000286,0.00000059,-0.00000729,0.00000368\\\@


 THE WORLD IS MADE UP OF THE WILLS, THE WON'TS, AND THE CANT'S:
 THE WILLS DO EVERYTHING,
 THE WON'TS DO NOTHING,
 THE CAN'TS CAN'T DO ANYTHING.

                               -- FROM WALT DISNEY'S "BLACK HOLE"
 Job cpu time:       0 days 17 hours 24 minutes 55.6 seconds.
 Elapsed time:       0 days  1 hours  5 minutes 21.8 seconds.
 File lengths (MBytes):  RWF=   1037 Int=      0 D2E=      0 Chk=     41 Scr=      1
 Normal termination of Gaussian 16 at Thu Mar 25 14:35:51 2021.
