 Entering Gaussian System, Link 0=g16
 Initial command:
 /apps/gaussian/16/A.03/g16/l1.exe "/beegfs/scratch/user/q/tla25/Gau-6576.inp" -scrdir="/beegfs/scratch/user/q/tla25/"
 Entering Link 1 = /apps/gaussian/16/A.03/g16/l1.exe PID=      6577.
  
 Copyright (c) 1988,1990,1992,1993,1995,1998,2003,2009,2016,
            Gaussian, Inc.  All Rights Reserved.
  
 This is part of the Gaussian(R) 16 program.  It is based on
 the Gaussian(R) 09 system (copyright 2009, Gaussian, Inc.),
 the Gaussian(R) 03 system (copyright 2003, Gaussian, Inc.),
 the Gaussian(R) 98 system (copyright 1998, Gaussian, Inc.),
 the Gaussian(R) 94 system (copyright 1995, Gaussian, Inc.),
 the Gaussian 92(TM) system (copyright 1992, Gaussian, Inc.),
 the Gaussian 90(TM) system (copyright 1990, Gaussian, Inc.),
 the Gaussian 88(TM) system (copyright 1988, Gaussian, Inc.),
 the Gaussian 86(TM) system (copyright 1986, Carnegie Mellon
 University), and the Gaussian 82(TM) system (copyright 1983,
 Carnegie Mellon University). Gaussian is a federally registered
 trademark of Gaussian, Inc.
  
 This software contains proprietary and confidential information,
 including trade secrets, belonging to Gaussian, Inc.
  
 This software is provided under written license and may be
 used, copied, transmitted, or stored only in accord with that
 written license.
  
 The following legend is applicable only to US Government
 contracts under FAR:
  
                    RESTRICTED RIGHTS LEGEND
  
 Use, reproduction and disclosure by the US Government is
 subject to restrictions as set forth in subparagraphs (a)
 and (c) of the Commercial Computer Software - Restricted
 Rights clause in FAR 52.227-19.
  
 Gaussian, Inc.
 340 Quinnipiac St., Bldg. 40, Wallingford CT 06492
  
  
 ---------------------------------------------------------------
 Warning -- This program may not be used in any manner that
 competes with the business of Gaussian, Inc. or will provide
 assistance to any competitor of Gaussian, Inc.  The licensee
 of this program is prohibited from giving any competitor of
 Gaussian, Inc. access to this program.  By using this program,
 the user acknowledges that Gaussian, Inc. is engaged in the
 business of creating and licensing software in the field of
 computational chemistry and represents and warrants to the
 licensee that it is not a competitor of Gaussian, Inc. and that
 it will not use this program in any manner prohibited above.
 ---------------------------------------------------------------
  

 Cite this work as:
 Gaussian 16, Revision A.03,
 M. J. Frisch, G. W. Trucks, H. B. Schlegel, G. E. Scuseria, 
 M. A. Robb, J. R. Cheeseman, G. Scalmani, V. Barone, 
 G. A. Petersson, H. Nakatsuji, X. Li, M. Caricato, A. V. Marenich, 
 J. Bloino, B. G. Janesko, R. Gomperts, B. Mennucci, H. P. Hratchian, 
 J. V. Ortiz, A. F. Izmaylov, J. L. Sonnenberg, D. Williams-Young, 
 F. Ding, F. Lipparini, F. Egidi, J. Goings, B. Peng, A. Petrone, 
 T. Henderson, D. Ranasinghe, V. G. Zakrzewski, J. Gao, N. Rega, 
 G. Zheng, W. Liang, M. Hada, M. Ehara, K. Toyota, R. Fukuda, 
 J. Hasegawa, M. Ishida, T. Nakajima, Y. Honda, O. Kitao, H. Nakai, 
 T. Vreven, K. Throssell, J. A. Montgomery, Jr., J. E. Peralta, 
 F. Ogliaro, M. J. Bearpark, J. J. Heyd, E. N. Brothers, K. N. Kudin, 
 V. N. Staroverov, T. A. Keith, R. Kobayashi, J. Normand, 
 K. Raghavachari, A. P. Rendell, J. C. Burant, S. S. Iyengar, 
 J. Tomasi, M. Cossi, J. M. Millam, M. Klene, C. Adamo, R. Cammi, 
 J. W. Ochterski, R. L. Martin, K. Morokuma, O. Farkas, 
 J. B. Foresman, and D. J. Fox, Gaussian, Inc., Wallingford CT, 2016.
 
 ******************************************
 Gaussian 16:  ES64L-G16RevA.03 25-Dec-2016
                11-Feb-2021 
 ******************************************
 %nprocshared=16
 Will use up to   16 processors via shared memory.
 %mem=48GB
 ----------------------------------------------------------------------
 # wB97XD def2tzvp, opt=(ts, noeigen, calcfc, maxcycles=70, maxstep=8),
  freq=noraman, scrf=(iefpcm, solvent=water)
 ----------------------------------------------------------------------
 1/5=1,6=70,8=8,10=4,11=1,18=20,26=3,38=1/1,3;
 2/9=110,12=2,17=6,18=5,40=1/2;
 3/5=44,7=101,11=2,25=1,30=1,70=2201,71=2,72=1,74=-58,140=1/1,2,3;
 4//1;
 5/5=2,38=5,53=1/2;
 8/6=4,10=90,11=11/1;
 11/6=1,8=1,9=11,15=111,16=1/1,2,10;
 10/6=1,13=1/2;
 6/7=2,8=2,9=2,10=2,28=1/1;
 7/10=1,18=20,25=1/1,2,3,16;
 1/5=1,6=70,8=8,10=4,11=1,18=20,26=3/3(2);
 2/9=110/2;
 99//99;
 2/9=110/2;
 3/5=44,7=101,11=2,25=1,30=1,70=2205,71=1,72=1,74=-58/1,2,3;
 4/5=5,16=3,69=1/1;
 5/5=2,38=5,53=1/2;
 7//1,2,3,16;
 1/5=1,6=70,8=8,11=1,18=20,26=3/3(-5);
 2/9=110/2;
 6/7=2,8=2,9=2,10=2,19=2,28=1/1;
 99/9=1/99;
 ------------------------
 1_iteration/TS-213-1.out
 ------------------------
 Symbolic Z-matrix:
 Charge =  0 Multiplicity = 1
 C                     1.51707   0.46123   0.8935 
 C                     2.0442   -0.77954   0.41525 
 O                     3.17438  -1.18807   0.7534 
 C                     0.32181   1.14929   0.56024 
 C                     1.17432   3.48412  -0.44004 
 H                     1.45563   4.08817  -1.30069 
 H                     0.46287   4.03358   0.17284 
 H                     2.06215   3.25715   0.14899 
 N                     0.56531   2.21967  -0.85992 
 H                    -0.28452   2.38359  -1.39093 
 H                     1.21125   1.69902  -1.44421 
 H                     0.13741   1.95738   1.26493 
 C                    -0.97705   0.4416    0.26517 
 C                    -1.3959    0.04947  -1.0028 
 C                    -2.59928  -0.62272  -1.17875 
 C                    -3.40461  -0.90943  -0.08968 
 C                    -2.99923  -0.5181    1.17994 
 C                    -1.80003   0.15142   1.35245 
 H                    -0.78026   0.24164  -1.8731 
 H                    -2.90152  -0.92197  -2.17419 
 H                    -4.34234  -1.43226  -0.22649 
 H                    -3.62178  -0.73255   2.03933 
 H                    -1.48963   0.45335   2.34582 
 H                     2.21206   1.00273   1.52323 
 N                     1.3092   -1.55536  -0.45637 
 C                     1.71551  -2.90776  -0.75979 
 H                     0.32344  -1.37234  -0.5132 
 H                     1.00719  -3.32975  -1.47188 
 H                     2.70657  -2.91992  -1.21268 
 H                     1.74405  -3.55093   0.12615 
 
 Add virtual bond connecting atoms N9         and C4         Dist= 3.39D+00.

 GradGradGradGradGradGradGradGradGradGradGradGradGradGradGradGradGradGrad
 Berny optimization.
 Initialization pass.
                           ----------------------------
                           !    Initial Parameters    !
                           ! (Angstroms and Degrees)  !
 --------------------------                            --------------------------
 ! Name  Definition              Value          Derivative Info.                !
 --------------------------------------------------------------------------------
 ! R1    R(1,2)                  1.4304         calculate D2E/DX2 analytically  !
 ! R2    R(1,4)                  1.4188         calculate D2E/DX2 analytically  !
 ! R3    R(1,24)                 1.083          calculate D2E/DX2 analytically  !
 ! R4    R(2,3)                  1.2484         calculate D2E/DX2 analytically  !
 ! R5    R(2,25)                 1.3791         calculate D2E/DX2 analytically  !
 ! R6    R(4,9)                  1.795          calculate D2E/DX2 analytically  !
 ! R7    R(4,12)                 1.0879         calculate D2E/DX2 analytically  !
 ! R8    R(4,13)                 1.5083         calculate D2E/DX2 analytically  !
 ! R9    R(5,6)                  1.0885         calculate D2E/DX2 analytically  !
 ! R10   R(5,7)                  1.088          calculate D2E/DX2 analytically  !
 ! R11   R(5,8)                  1.0894         calculate D2E/DX2 analytically  !
 ! R12   R(5,9)                  1.4649         calculate D2E/DX2 analytically  !
 ! R13   R(9,10)                 1.0154         calculate D2E/DX2 analytically  !
 ! R14   R(9,11)                 1.0147         calculate D2E/DX2 analytically  !
 ! R15   R(13,14)                1.3917         calculate D2E/DX2 analytically  !
 ! R16   R(13,18)                1.3942         calculate D2E/DX2 analytically  !
 ! R17   R(14,15)                1.3896         calculate D2E/DX2 analytically  !
 ! R18   R(14,19)                1.0832         calculate D2E/DX2 analytically  !
 ! R19   R(15,16)                1.3845         calculate D2E/DX2 analytically  !
 ! R20   R(15,20)                1.0825         calculate D2E/DX2 analytically  !
 ! R21   R(16,17)                1.389          calculate D2E/DX2 analytically  !
 ! R22   R(16,21)                1.0823         calculate D2E/DX2 analytically  !
 ! R23   R(17,18)                1.3842         calculate D2E/DX2 analytically  !
 ! R24   R(17,22)                1.0826         calculate D2E/DX2 analytically  !
 ! R25   R(18,23)                1.0836         calculate D2E/DX2 analytically  !
 ! R26   R(25,26)                1.4443         calculate D2E/DX2 analytically  !
 ! R27   R(25,27)                1.0042         calculate D2E/DX2 analytically  !
 ! R28   R(26,28)                1.0894         calculate D2E/DX2 analytically  !
 ! R29   R(26,29)                1.0897         calculate D2E/DX2 analytically  !
 ! R30   R(26,30)                1.0952         calculate D2E/DX2 analytically  !
 ! A1    A(2,1,4)              130.7348         calculate D2E/DX2 analytically  !
 ! A2    A(2,1,24)             113.0571         calculate D2E/DX2 analytically  !
 ! A3    A(4,1,24)             115.7676         calculate D2E/DX2 analytically  !
 ! A4    A(1,2,3)              121.7964         calculate D2E/DX2 analytically  !
 ! A5    A(1,2,25)             120.1913         calculate D2E/DX2 analytically  !
 ! A6    A(3,2,25)             118.0077         calculate D2E/DX2 analytically  !
 ! A7    A(1,4,9)              111.1457         calculate D2E/DX2 analytically  !
 ! A8    A(1,4,12)             110.5392         calculate D2E/DX2 analytically  !
 ! A9    A(1,4,13)             122.9468         calculate D2E/DX2 analytically  !
 ! A10   A(9,4,12)              95.3097         calculate D2E/DX2 analytically  !
 ! A11   A(9,4,13)             103.9949         calculate D2E/DX2 analytically  !
 ! A12   A(12,4,13)            109.2243         calculate D2E/DX2 analytically  !
 ! A13   A(6,5,7)              109.5213         calculate D2E/DX2 analytically  !
 ! A14   A(6,5,8)              109.4227         calculate D2E/DX2 analytically  !
 ! A15   A(6,5,9)              111.0893         calculate D2E/DX2 analytically  !
 ! A16   A(7,5,8)              109.4859         calculate D2E/DX2 analytically  !
 ! A17   A(7,5,9)              108.9972         calculate D2E/DX2 analytically  !
 ! A18   A(8,5,9)              108.2979         calculate D2E/DX2 analytically  !
 ! A19   A(4,9,5)              110.1416         calculate D2E/DX2 analytically  !
 ! A20   A(4,9,10)             113.3588         calculate D2E/DX2 analytically  !
 ! A21   A(4,9,11)             103.6481         calculate D2E/DX2 analytically  !
 ! A22   A(5,9,10)             111.0072         calculate D2E/DX2 analytically  !
 ! A23   A(5,9,11)             110.0763         calculate D2E/DX2 analytically  !
 ! A24   A(10,9,11)            108.3286         calculate D2E/DX2 analytically  !
 ! A25   A(4,13,14)            124.7223         calculate D2E/DX2 analytically  !
 ! A26   A(4,13,18)            116.964          calculate D2E/DX2 analytically  !
 ! A27   A(14,13,18)           118.3089         calculate D2E/DX2 analytically  !
 ! A28   A(13,14,15)           120.816          calculate D2E/DX2 analytically  !
 ! A29   A(13,14,19)           120.7275         calculate D2E/DX2 analytically  !
 ! A30   A(15,14,19)           118.4423         calculate D2E/DX2 analytically  !
 ! A31   A(14,15,16)           120.2854         calculate D2E/DX2 analytically  !
 ! A32   A(14,15,20)           119.4694         calculate D2E/DX2 analytically  !
 ! A33   A(16,15,20)           120.2451         calculate D2E/DX2 analytically  !
 ! A34   A(15,16,17)           119.3993         calculate D2E/DX2 analytically  !
 ! A35   A(15,16,21)           120.3032         calculate D2E/DX2 analytically  !
 ! A36   A(17,16,21)           120.2974         calculate D2E/DX2 analytically  !
 ! A37   A(16,17,18)           120.1993         calculate D2E/DX2 analytically  !
 ! A38   A(16,17,22)           120.1276         calculate D2E/DX2 analytically  !
 ! A39   A(18,17,22)           119.6728         calculate D2E/DX2 analytically  !
 ! A40   A(13,18,17)           120.9893         calculate D2E/DX2 analytically  !
 ! A41   A(13,18,23)           119.1981         calculate D2E/DX2 analytically  !
 ! A42   A(17,18,23)           119.8121         calculate D2E/DX2 analytically  !
 ! A43   A(2,25,26)            120.6371         calculate D2E/DX2 analytically  !
 ! A44   A(2,25,27)            117.1557         calculate D2E/DX2 analytically  !
 ! A45   A(26,25,27)           115.7791         calculate D2E/DX2 analytically  !
 ! A46   A(25,26,28)           108.4877         calculate D2E/DX2 analytically  !
 ! A47   A(25,26,29)           110.7078         calculate D2E/DX2 analytically  !
 ! A48   A(25,26,30)           112.7858         calculate D2E/DX2 analytically  !
 ! A49   A(28,26,29)           108.3813         calculate D2E/DX2 analytically  !
 ! A50   A(28,26,30)           108.5555         calculate D2E/DX2 analytically  !
 ! A51   A(29,26,30)           107.8157         calculate D2E/DX2 analytically  !
 ! D1    D(4,1,2,3)            174.5462         calculate D2E/DX2 analytically  !
 ! D2    D(4,1,2,25)            -4.6635         calculate D2E/DX2 analytically  !
 ! D3    D(24,1,2,3)             2.62           calculate D2E/DX2 analytically  !
 ! D4    D(24,1,2,25)         -176.5897         calculate D2E/DX2 analytically  !
 ! D5    D(2,1,4,9)            -87.3511         calculate D2E/DX2 analytically  !
 ! D6    D(2,1,4,12)           168.1199         calculate D2E/DX2 analytically  !
 ! D7    D(2,1,4,13)            36.681          calculate D2E/DX2 analytically  !
 ! D8    D(24,1,4,9)            84.3986         calculate D2E/DX2 analytically  !
 ! D9    D(24,1,4,12)          -20.1304         calculate D2E/DX2 analytically  !
 ! D10   D(24,1,4,13)         -151.5693         calculate D2E/DX2 analytically  !
 ! D11   D(1,2,25,26)         -168.9177         calculate D2E/DX2 analytically  !
 ! D12   D(1,2,25,27)          -18.2392         calculate D2E/DX2 analytically  !
 ! D13   D(3,2,25,26)           11.8431         calculate D2E/DX2 analytically  !
 ! D14   D(3,2,25,27)          162.5216         calculate D2E/DX2 analytically  !
 ! D15   D(1,4,9,5)            -81.9132         calculate D2E/DX2 analytically  !
 ! D16   D(1,4,9,10)           153.0342         calculate D2E/DX2 analytically  !
 ! D17   D(1,4,9,11)            35.8172         calculate D2E/DX2 analytically  !
 ! D18   D(12,4,9,5)            32.5272         calculate D2E/DX2 analytically  !
 ! D19   D(12,4,9,10)          -92.5254         calculate D2E/DX2 analytically  !
 ! D20   D(12,4,9,11)          150.2576         calculate D2E/DX2 analytically  !
 ! D21   D(13,4,9,5)           143.8711         calculate D2E/DX2 analytically  !
 ! D22   D(13,4,9,10)           18.8185         calculate D2E/DX2 analytically  !
 ! D23   D(13,4,9,11)          -98.3985         calculate D2E/DX2 analytically  !
 ! D24   D(1,4,13,14)          -91.7532         calculate D2E/DX2 analytically  !
 ! D25   D(1,4,13,18)           87.4379         calculate D2E/DX2 analytically  !
 ! D26   D(9,4,13,14)           35.4432         calculate D2E/DX2 analytically  !
 ! D27   D(9,4,13,18)         -145.3657         calculate D2E/DX2 analytically  !
 ! D28   D(12,4,13,14)         136.2743         calculate D2E/DX2 analytically  !
 ! D29   D(12,4,13,18)         -44.5346         calculate D2E/DX2 analytically  !
 ! D30   D(6,5,9,4)            172.1265         calculate D2E/DX2 analytically  !
 ! D31   D(6,5,9,10)           -61.4873         calculate D2E/DX2 analytically  !
 ! D32   D(6,5,9,11)            58.4462         calculate D2E/DX2 analytically  !
 ! D33   D(7,5,9,4)            -67.1066         calculate D2E/DX2 analytically  !
 ! D34   D(7,5,9,10)            59.2795         calculate D2E/DX2 analytically  !
 ! D35   D(7,5,9,11)           179.213          calculate D2E/DX2 analytically  !
 ! D36   D(8,5,9,4)             51.9335         calculate D2E/DX2 analytically  !
 ! D37   D(8,5,9,10)           178.3196         calculate D2E/DX2 analytically  !
 ! D38   D(8,5,9,11)           -61.7469         calculate D2E/DX2 analytically  !
 ! D39   D(4,13,14,15)         178.7223         calculate D2E/DX2 analytically  !
 ! D40   D(4,13,14,19)           0.113          calculate D2E/DX2 analytically  !
 ! D41   D(18,13,14,15)         -0.4588         calculate D2E/DX2 analytically  !
 ! D42   D(18,13,14,19)       -179.0681         calculate D2E/DX2 analytically  !
 ! D43   D(4,13,18,17)        -178.7831         calculate D2E/DX2 analytically  !
 ! D44   D(4,13,18,23)           0.9743         calculate D2E/DX2 analytically  !
 ! D45   D(14,13,18,17)          0.4617         calculate D2E/DX2 analytically  !
 ! D46   D(14,13,18,23)       -179.7809         calculate D2E/DX2 analytically  !
 ! D47   D(13,14,15,16)          0.2077         calculate D2E/DX2 analytically  !
 ! D48   D(13,14,15,20)       -179.6948         calculate D2E/DX2 analytically  !
 ! D49   D(19,14,15,16)        178.8481         calculate D2E/DX2 analytically  !
 ! D50   D(19,14,15,20)         -1.0544         calculate D2E/DX2 analytically  !
 ! D51   D(14,15,16,17)          0.0529         calculate D2E/DX2 analytically  !
 ! D52   D(14,15,16,21)        179.9501         calculate D2E/DX2 analytically  !
 ! D53   D(20,15,16,17)        179.9546         calculate D2E/DX2 analytically  !
 ! D54   D(20,15,16,21)         -0.1482         calculate D2E/DX2 analytically  !
 ! D55   D(15,16,17,18)         -0.0508         calculate D2E/DX2 analytically  !
 ! D56   D(15,16,17,22)        179.7428         calculate D2E/DX2 analytically  !
 ! D57   D(21,16,17,18)       -179.948          calculate D2E/DX2 analytically  !
 ! D58   D(21,16,17,22)         -0.1543         calculate D2E/DX2 analytically  !
 ! D59   D(16,17,18,13)         -0.2119         calculate D2E/DX2 analytically  !
 ! D60   D(16,17,18,23)       -179.9679         calculate D2E/DX2 analytically  !
 ! D61   D(22,17,18,13)        179.9934         calculate D2E/DX2 analytically  !
 ! D62   D(22,17,18,23)          0.2375         calculate D2E/DX2 analytically  !
 ! D63   D(2,25,26,28)        -179.3359         calculate D2E/DX2 analytically  !
 ! D64   D(2,25,26,29)         -60.5291         calculate D2E/DX2 analytically  !
 ! D65   D(2,25,26,30)          60.3728         calculate D2E/DX2 analytically  !
 ! D66   D(27,25,26,28)         29.6037         calculate D2E/DX2 analytically  !
 ! D67   D(27,25,26,29)        148.4104         calculate D2E/DX2 analytically  !
 ! D68   D(27,25,26,30)        -90.6876         calculate D2E/DX2 analytically  !
 --------------------------------------------------------------------------------
 Trust Radius=8.00D-02 FncErr=1.00D-07 GrdErr=1.00D-06 EigMax=2.50D+02 EigMin=1.00D-04
 Number of steps in this run=     70 maximum allowed number of steps=    180.
 Search for a saddle point of order  1.
 GradGradGradGradGradGradGradGradGradGradGradGradGradGradGradGradGradGrad

                          Input orientation:                          
 ---------------------------------------------------------------------
 Center     Atomic      Atomic             Coordinates (Angstroms)
 Number     Number       Type             X           Y           Z
 ---------------------------------------------------------------------
      1          6           0        1.517070    0.461230    0.893500
      2          6           0        2.044200   -0.779540    0.415250
      3          8           0        3.174380   -1.188070    0.753400
      4          6           0        0.321810    1.149290    0.560240
      5          6           0        1.174320    3.484120   -0.440040
      6          1           0        1.455630    4.088170   -1.300690
      7          1           0        0.462870    4.033580    0.172840
      8          1           0        2.062150    3.257150    0.148990
      9          7           0        0.565310    2.219670   -0.859920
     10          1           0       -0.284520    2.383590   -1.390930
     11          1           0        1.211250    1.699020   -1.444210
     12          1           0        0.137410    1.957380    1.264930
     13          6           0       -0.977050    0.441600    0.265170
     14          6           0       -1.395900    0.049470   -1.002800
     15          6           0       -2.599280   -0.622720   -1.178750
     16          6           0       -3.404610   -0.909430   -0.089680
     17          6           0       -2.999230   -0.518100    1.179940
     18          6           0       -1.800030    0.151420    1.352450
     19          1           0       -0.780260    0.241640   -1.873100
     20          1           0       -2.901520   -0.921970   -2.174190
     21          1           0       -4.342340   -1.432260   -0.226490
     22          1           0       -3.621780   -0.732550    2.039330
     23          1           0       -1.489630    0.453350    2.345820
     24          1           0        2.212060    1.002730    1.523230
     25          7           0        1.309200   -1.555360   -0.456370
     26          6           0        1.715510   -2.907760   -0.759790
     27          1           0        0.323440   -1.372340   -0.513200
     28          1           0        1.007190   -3.329750   -1.471880
     29          1           0        2.706570   -2.919920   -1.212680
     30          1           0        1.744050   -3.550930    0.126150
 ---------------------------------------------------------------------
                    Distance matrix (angstroms):
                    1          2          3          4          5
     1  C    0.000000
     2  C    1.430419   0.000000
     3  O    2.342327   1.248419   0.000000
     4  C    1.418850   2.589987   3.692928   0.000000
     5  C    3.321697   4.434750   5.220527   2.679322   0.000000
     6  H    4.239450   5.194754   5.917102   3.658637   1.088453
     7  H    3.793728   5.072030   5.912272   2.913607   1.087975
     8  H    2.944245   4.045502   4.621942   2.764233   1.089364
     9  N    2.659406   3.578887   4.585056   1.794954   1.464932
    10  H    3.487093   4.323264   5.414693   2.387090   2.059993
    11  H    2.662806   3.208529   4.125368   2.260780   2.048488
    12  H    2.068789   3.442170   4.402125   1.087934   2.512576
    13  C    2.572123   3.262155   4.486487   1.508287   3.792445
    14  C    3.500128   3.812140   5.050070   2.569674   4.326610
    15  C    4.734290   4.911958   6.114571   3.833650   5.626001
    16  C    5.202719   5.473697   6.638639   4.306615   6.355520
    17  C    4.630130   5.107767   6.224488   3.767429   6.005050
    18  C    3.363000   4.064866   5.186314   2.474984   4.813176
    19  H    3.602780   3.775835   4.957999   2.821264   4.048175
    20  H    5.554089   5.584410   6.749678   4.707131   6.247670
    21  H    6.258783   6.451803   7.584253   5.388658   7.392559
    22  H    5.398687   5.894334   6.931732   4.613126   6.850559
    23  H    3.339093   4.211303   5.194521   2.637033   4.903388
    24  H    1.082956   2.105299   2.513623   2.126470   3.329959
    25  N    2.435569   1.379073   2.253296   3.053452   5.041311
    26  C    3.758037   2.453177   2.715765   4.488266   6.422714
    27  H    2.601064   2.043146   3.125074   2.740601   4.930979
    28  H    4.497391   3.337697   3.772980   4.965990   6.893580
    29  H    4.157292   2.769498   2.661507   5.038730   6.629969
    30  H    4.091182   2.802547   2.832383   4.929835   7.080755
                    6          7          8          9         10
     6  H    0.000000
     7  H    1.777595   0.000000
     8  H    1.777648   1.777951   0.000000
     9  N    2.116185   2.089822   2.082017   0.000000
    10  H    2.437593   2.392997   2.939612   1.015408   0.000000
    11  H    2.405901   2.936851   2.385390   1.014746   1.645844
    12  H    3.586137   2.368373   2.576693   2.183319   2.722732
    13  C    4.654817   3.870945   4.144582   2.608876   2.644540
    14  C    4.952884   4.550856   4.855300   2.928571   2.614178
    15  C    6.216884   5.734517   6.208479   4.265614   3.800136
    16  C    7.075626   6.281693   6.877704   5.113199   4.719343
    17  C    6.871465   5.806736   6.397885   4.935824   4.732740
    18  C    5.756429   4.645790   5.100030   3.842795   3.847790
    19  H    4.485828   4.484423   4.611013   2.598018   2.250821
    20  H    6.696959   6.433129   6.892041   4.859642   4.288229
    21  H    8.077469   7.288684   7.946637   6.150029   5.690565
    22  H    7.757265   6.548599   7.197093   5.886678   5.710895
    23  H    5.931569   4.620838   5.030159   4.197551   4.375091
    24  H    4.250488   3.750903   2.644507   3.141995   4.078237
    25  N    5.708218   5.687568   4.908528   3.868731   4.350709
    26  C    7.021620   7.114851   6.241166   5.255809   5.691822
    27  H    5.631977   5.451061   4.989367   3.616801   3.904745
    28  H    7.433434   7.564391   6.864941   5.600519   5.858099
    29  H    7.119405   7.436734   6.358114   5.578962   6.091437
    30  H    7.776561   7.692099   6.815546   5.971732   6.452531
                   11         12         13         14         15
    11  H    0.000000
    12  H    2.925632   0.000000
    13  C    3.048236   2.130523   0.000000
    14  C    3.116583   3.336729   1.391743   0.000000
    15  C    4.470021   4.485305   2.418535   1.389576   0.000000
    16  C    5.472196   4.753890   2.800758   2.405866   1.384497
    17  C    5.434144   3.996716   2.418065   2.767157   2.394645
    18  C    4.391376   2.650061   1.394159   2.391844   2.764971
    19  H    2.504798   3.692305   2.156597   1.083219   2.130276
    20  H    4.931261   5.417868   3.393138   2.140734   1.082497
    21  H    6.490772   5.812242   3.883073   3.388169   2.144857
    22  H    6.434731   4.686889   3.394241   3.849760   3.378403
    23  H    4.817756   2.465297   2.142891   3.374190   3.848616
    24  H    3.208137   2.298314   3.473903   4.506319   5.752545
    25  N    3.402413   4.083541   3.120162   3.192433   4.082630
    26  C    4.684563   5.500862   4.417990   4.299434   4.900444
    27  H    3.329901   3.779337   2.363792   2.284159   3.089851
    28  H    5.032985   6.016676   4.601916   4.173009   4.518912
    29  H    4.860473   6.043773   5.201242   5.068687   5.781896
    30  H    5.505623   5.849751   4.833633   4.908838   5.398305
                   16         17         18         19         20
    16  C    0.000000
    17  C    1.389031   0.000000
    18  C    2.404125   1.384232   0.000000
    19  H    3.375317   3.849946   3.384116   0.000000
    20  H    2.144397   3.379770   3.847419   2.438111   0.000000
    21  H    1.082315   2.148878   3.385917   4.266343   2.475862
    22  H    2.147355   1.082640   2.138219   4.932585   4.278832
    23  H    3.384668   2.140533   1.083648   4.283376   4.931068
    24  H    6.148562   5.439514   4.104968   4.590021   6.597279
    25  N    4.771969   4.723980   3.981487   3.098738   4.591541
    26  C    5.536967   5.630435   5.116558   4.169778   5.221193
    27  H    3.780478   3.825779   3.211171   2.381683   3.655419
    28  H    5.218468   5.566770   5.289222   4.013824   4.644207
    29  H    6.530675   6.636981   6.026812   4.752852   6.030504
    30  H    5.790752   5.727760   5.269887   4.975211   5.812428
                   21         22         23         24         25
    21  H    0.000000
    22  H    2.478455   0.000000
    23  H    4.279049   2.458934   0.000000
    24  H    7.207694   6.108293   3.831577   0.000000
    25  N    5.657553   5.587495   4.440792   3.358243   0.000000
    26  C    6.257720   6.407283   5.587020   4.555291   1.444347
    27  H    4.674965   4.742310   3.846344   3.654434   1.004215
    28  H    5.811105   6.364072   5.926280   5.403034   2.066623
    29  H    7.271371   7.443666   6.453679   4.808007   2.094438
    30  H    6.454244   6.355758   5.605165   4.786093   2.123846
                   26         27         28         29         30
    26  C    0.000000
    27  H    2.087146   0.000000
    28  H    1.089433   2.284302   0.000000
    29  H    1.089705   2.926360   1.767212   0.000000
    30  H    1.095158   2.678275   1.773579   1.765527   0.000000
 Stoichiometry    C11H16N2O
 Framework group  C1[X(C11H16N2O)]
 Deg. of freedom    84
 Full point group                 C1      NOp   1
 Largest Abelian subgroup         C1      NOp   1
 Largest concise Abelian subgroup C1      NOp   1
                         Standard orientation:                         
 ---------------------------------------------------------------------
 Center     Atomic      Atomic             Coordinates (Angstroms)
 Number     Number       Type             X           Y           Z
 ---------------------------------------------------------------------
      1          6           0        1.517069    0.461234    0.893500
      2          6           0        2.044201   -0.779535    0.415250
      3          8           0        3.174382   -1.188063    0.753400
      4          6           0        0.321807    1.149291    0.560240
      5          6           0        1.174312    3.484123   -0.440040
      6          1           0        1.455621    4.088173   -1.300690
      7          1           0        0.462861    4.033581    0.172840
      8          1           0        2.062142    3.257155    0.148990
      9          7           0        0.565305    2.219671   -0.859920
     10          1           0       -0.284526    2.383590   -1.390930
     11          1           0        1.211246    1.699023   -1.444210
     12          1           0        0.137405    1.957380    1.264930
     13          6           0       -0.977051    0.441598    0.265170
     14          6           0       -1.395900    0.049467   -1.002800
     15          6           0       -2.599279   -0.622726   -1.178750
     16          6           0       -3.404608   -0.909437   -0.089680
     17          6           0       -2.999229   -0.518106    1.179940
     18          6           0       -1.800031    0.151416    1.352450
     19          1           0       -0.780261    0.241638   -1.873100
     20          1           0       -2.901518   -0.921976   -2.174190
     21          1           0       -4.342337   -1.432269   -0.226490
     22          1           0       -3.621779   -0.732558    2.039330
     23          1           0       -1.489631    0.453347    2.345820
     24          1           0        2.212057    1.002735    1.523230
     25          7           0        1.309203   -1.555357   -0.456370
     26          6           0        1.715516   -2.907756   -0.759790
     27          1           0        0.323443   -1.372339   -0.513200
     28          1           0        1.007197   -3.329748   -1.471880
     29          1           0        2.706576   -2.919914   -1.212680
     30          1           0        1.744057   -3.550926    0.126150
 ---------------------------------------------------------------------
 Rotational constants (GHZ):           0.7649087           0.5387193           0.3872991
 Standard basis: def2TZVP (5D, 7F)
 There are   600 symmetry adapted cartesian basis functions of A   symmetry.
 There are   530 symmetry adapted basis functions of A   symmetry.
   530 basis functions,   842 primitive gaussians,   600 cartesian basis functions
    52 alpha electrons       52 beta electrons
       nuclear repulsion energy       890.7480846887 Hartrees.
 NAtoms=   30 NActive=   30 NUniq=   30 SFac= 1.00D+00 NAtFMM=   60 NAOKFM=F Big=F
 Integral buffers will be    131072 words long.
 Raffenetti 2 integral format.
 Two-electron integral symmetry is turned on.
 Nuclear repulsion after empirical dispersion term =      890.7266724629 Hartrees.
 Force inversion solution in PCM.
 ------------------------------------------------------------------------------
 Polarizable Continuum Model (PCM)
 =================================
 Model                : PCM.
 Atomic radii         : UFF (Universal Force Field).
 Polarization charges : Total charges.
 Charge compensation  : None.
 Solution method      : Matrix inversion.
 Cavity type          : Scaled VdW (van der Waals Surface) (Alpha=1.100).
 Cavity algorithm     : GePol (No added spheres)
                        Default sphere list used, NSphG=   30.
                        Lebedev-Laikov grids with approx.  5.0 points / Ang**2.
                        Smoothing algorithm: York/Karplus (Gamma=1.0000).
                        Polarization charges: spherical gaussians, with
                                              point-specific exponents (IZeta= 3).
                        Self-potential: point-specific (ISelfS= 7).
                        Self-field    : sphere-specific E.n sum rule (ISelfD= 2).
 1st derivatives      : Analytical E(r).r(x)/FMM algorithm (CHGder, D1EAlg=3).
                        Cavity 1st derivative terms included.
 2nd derivatives      : Analytical E(r).r(xy)/FMM algorithm (CHGder, D2EAlg=3).
                        Cavity 2nd derivative terms included.
 Solvent              : Water, Eps=  78.355300 Eps(inf)=   1.777849
 ------------------------------------------------------------------------------
 One-electron integrals computed using PRISM.
   1 Symmetry operations used in ECPInt.
 ECPInt:  NShTT=   23871 NPrTT=   71232 LenC2=   22365 LenP2D=   49750.
 LDataN:  DoStor=T MaxTD1= 6 Len=  172
 NBasis=   530 RedAO= T EigKep=  7.34D-06  NBF=   530
 NBsUse=   530 1.00D-06 EigRej= -1.00D+00 NBFU=   530
 ExpMin= 9.52D-02 ExpMax= 2.70D+04 ExpMxC= 9.22D+02 IAcc=3 IRadAn=         5 AccDes= 0.00D+00
 Harris functional with IExCor= 4639 and IRadAn=       5 diagonalized for initial guess.
 HarFok:  IExCor= 4639 AccDes= 0.00D+00 IRadAn=         5 IDoV= 1 UseB2=F ITyADJ=14
 ICtDFT=  3500011 ScaDFX=  1.000000  1.000000  1.000000  1.000000
 FoFCou: FMM=F IPFlag=           0 FMFlag=      100000 FMFlg1=           0
         NFxFlg=           0 DoJE=T BraDBF=F KetDBF=T FulRan=T
         wScrn=  0.000000 ICntrl=       500 IOpCl=  0 I1Cent=   200000004 NGrid=           0
         NMat0=    1 NMatS0=      1 NMatT0=    0 NMatD0=    1 NMtDS0=    0 NMtDT0=    0
 Petite list used in FoFCou.
 Requested convergence on RMS density matrix=1.00D-08 within 128 cycles.
 Requested convergence on MAX density matrix=1.00D-06.
 Requested convergence on             energy=1.00D-06.
 No special actions if energy rises.
 Inv3:  Mode=1 IEnd=    14427747.
 Iteration    1 A*A^-1 deviation from unit magnitude is 3.11D-15 for   2177.
 Iteration    1 A*A^-1 deviation from orthogonality  is 2.24D-15 for   2178    681.
 Iteration    1 A^-1*A deviation from unit magnitude is 3.55D-15 for    234.
 Iteration    1 A^-1*A deviation from orthogonality  is 1.85D-15 for    585    332.
 Error on total polarization charges =  0.01492
 SCF Done:  E(RwB97XD) =  -613.524066641     A.U. after   14 cycles
            NFock= 14  Conv=0.45D-08     -V/T= 2.0049
 DoSCS=F DFT=T ScalE2(SS,OS)=  1.000000  1.000000
 Range of M.O.s used for correlation:     1   530
 NBasis=   530 NAE=    52 NBE=    52 NFC=     0 NFV=     0
 NROrb=    530 NOA=    52 NOB=    52 NVA=   478 NVB=   478

 **** Warning!!: The largest alpha MO coefficient is  0.60544640D+02

   1 Symmetry operations used in ECPInt.
 ECPInt:  NShTT=   23871 NPrTT=   71232 LenC2=   22365 LenP2D=   49750.
 LDataN:  DoStor=T MaxTD1= 7 Len=  274
 Symmetrizing basis deriv contribution to polar:
 IMax=3 JMax=2 DiffMx= 0.00D+00
 G2DrvN: will do    31 centers at a time, making    1 passes.
 Calling FoFCou, ICntrl=  3107 FMM=F I1Cent=   0 AccDes= 0.00D+00.
 NEqPCM:  Using equilibrium solvation (IEInf=0, Eps=  78.3553, EpsInf=   1.7778)
 G2PCM: DoFxE=T DoFxN=T DoGrad=T DoDP/DQ/DG/TGxP=FFFF NFrqRd=   0 IEInf=0 SqF1=F DoCFld=F IF1Alg=4.
 End of G2Drv F.D. properties file   721 does not exist.
 End of G2Drv F.D. properties file   722 does not exist.
 End of G2Drv F.D. properties file   788 does not exist.
          IDoAtm=111111111111111111111111111111
 NEqPCM:  Using equilibrium solvation (IEInf=0, Eps=  78.3553, EpsInf=   1.7778)
          Differentiating once with respect to nuclear coordinates.
 CalDSu exits because no D1Ps are significant.
          There are    93 degrees of freedom in the 1st order CPHF.  IDoFFX=6 NUNeed=     0.
     87 vectors produced by pass  0 Test12= 2.67D-14 1.08D-09 XBig12= 1.21D-01 1.14D-01.
 AX will form    87 AO Fock derivatives at one time.
     87 vectors produced by pass  1 Test12= 2.67D-14 1.08D-09 XBig12= 3.90D-02 3.89D-02.
     87 vectors produced by pass  2 Test12= 2.67D-14 1.08D-09 XBig12= 9.56D-04 3.55D-03.
     87 vectors produced by pass  3 Test12= 2.67D-14 1.08D-09 XBig12= 1.31D-05 3.78D-04.
     87 vectors produced by pass  4 Test12= 2.67D-14 1.08D-09 XBig12= 1.36D-07 3.14D-05.
     87 vectors produced by pass  5 Test12= 2.67D-14 1.08D-09 XBig12= 1.16D-09 3.35D-06.
     87 vectors produced by pass  6 Test12= 2.67D-14 1.08D-09 XBig12= 8.04D-12 2.86D-07.
     37 vectors produced by pass  7 Test12= 2.67D-14 1.08D-09 XBig12= 4.90D-14 1.44D-08.
     14 vectors produced by pass  8 Test12= 2.67D-14 1.08D-09 XBig12= 5.83D-15 9.76D-09.
      4 vectors produced by pass  9 Test12= 2.67D-14 1.08D-09 XBig12= 3.22D-15 4.81D-09.
      3 vectors produced by pass 10 Test12= 2.67D-14 1.08D-09 XBig12= 2.45D-15 4.34D-09.
      2 vectors produced by pass 11 Test12= 2.67D-14 1.08D-09 XBig12= 3.61D-16 1.64D-09.
 InvSVY:  IOpt=1 It=  1 EMax= 3.33D-16
 Solved reduced A of dimension   669 with    93 vectors.
 End of Minotr F.D. properties file   721 does not exist.
 End of Minotr F.D. properties file   722 does not exist.
 End of Minotr F.D. properties file   788 does not exist.

 **********************************************************************

            Population analysis using the SCF density.

 **********************************************************************

 Orbital symmetries:
       Occupied  (A) (A) (A) (A) (A) (A) (A) (A) (A) (A) (A) (A)
                 (A) (A) (A) (A) (A) (A) (A) (A) (A) (A) (A) (A)
                 (A) (A) (A) (A) (A) (A) (A) (A) (A) (A) (A) (A)
                 (A) (A) (A) (A) (A) (A) (A) (A) (A) (A) (A) (A)
                 (A) (A) (A) (A)
       Virtual   (A) (A) (A) (A) (A) (A) (A) (A) (A) (A) (A) (A)
                 (A) (A) (A) (A) (A) (A) (A) (A) (A) (A) (A) (A)
                 (A) (A) (A) (A) (A) (A) (A) (A) (A) (A) (A) (A)
                 (A) (A) (A) (A) (A) (A) (A) (A) (A) (A) (A) (A)
                 (A) (A) (A) (A) (A) (A) (A) (A) (A) (A) (A) (A)
                 (A) (A) (A) (A) (A) (A) (A) (A) (A) (A) (A) (A)
                 (A) (A) (A) (A) (A) (A) (A) (A) (A) (A) (A) (A)
                 (A) (A) (A) (A) (A) (A) (A) (A) (A) (A) (A) (A)
                 (A) (A) (A) (A) (A) (A) (A) (A) (A) (A) (A) (A)
                 (A) (A) (A) (A) (A) (A) (A) (A) (A) (A) (A) (A)
                 (A) (A) (A) (A) (A) (A) (A) (A) (A) (A) (A) (A)
                 (A) (A) (A) (A) (A) (A) (A) (A) (A) (A) (A) (A)
                 (A) (A) (A) (A) (A) (A) (A) (A) (A) (A) (A) (A)
                 (A) (A) (A) (A) (A) (A) (A) (A) (A) (A) (A) (A)
                 (A) (A) (A) (A) (A) (A) (A) (A) (A) (A) (A) (A)
                 (A) (A) (A) (A) (A) (A) (A) (A) (A) (A) (A) (A)
                 (A) (A) (A) (A) (A) (A) (A) (A) (A) (A) (A) (A)
                 (A) (A) (A) (A) (A) (A) (A) (A) (A) (A) (A) (A)
                 (A) (A) (A) (A) (A) (A) (A) (A) (A) (A) (A) (A)
                 (A) (A) (A) (A) (A) (A) (A) (A) (A) (A) (A) (A)
                 (A) (A) (A) (A) (A) (A) (A) (A) (A) (A) (A) (A)
                 (A) (A) (A) (A) (A) (A) (A) (A) (A) (A) (A) (A)
                 (A) (A) (A) (A) (A) (A) (A) (A) (A) (A) (A) (A)
                 (A) (A) (A) (A) (A) (A) (A) (A) (A) (A) (A) (A)
                 (A) (A) (A) (A) (A) (A) (A) (A) (A) (A) (A) (A)
                 (A) (A) (A) (A) (A) (A) (A) (A) (A) (A) (A) (A)
                 (A) (A) (A) (A) (A) (A) (A) (A) (A) (A) (A) (A)
                 (A) (A) (A) (A) (A) (A) (A) (A) (A) (A) (A) (A)
                 (A) (A) (A) (A) (A) (A) (A) (A) (A) (A) (A) (A)
                 (A) (A) (A) (A) (A) (A) (A) (A) (A) (A) (A) (A)
                 (A) (A) (A) (A) (A) (A) (A) (A) (A) (A) (A) (A)
                 (A) (A) (A) (A) (A) (A) (A) (A) (A) (A) (A) (A)
                 (A) (A) (A) (A) (A) (A) (A) (A) (A) (A) (A) (A)
                 (A) (A) (A) (A) (A) (A) (A) (A) (A) (A) (A) (A)
                 (A) (A) (A) (A) (A) (A) (A) (A) (A) (A) (A) (A)
                 (A) (A) (A) (A) (A) (A) (A) (A) (A) (A) (A) (A)
                 (A) (A) (A) (A) (A) (A) (A) (A) (A) (A) (A) (A)
                 (A) (A) (A) (A) (A) (A) (A) (A) (A) (A) (A) (A)
                 (A) (A) (A) (A) (A) (A) (A) (A) (A) (A) (A) (A)
                 (A) (A) (A) (A) (A) (A) (A) (A) (A) (A)
 The electronic state is 1-A.
 Alpha  occ. eigenvalues --  -19.17857 -14.50166 -14.42681 -10.35510 -10.34348
 Alpha  occ. eigenvalues --  -10.32353 -10.31086 -10.29800 -10.29791 -10.29596
 Alpha  occ. eigenvalues --  -10.29521 -10.29449 -10.29287 -10.23290  -1.10246
 Alpha  occ. eigenvalues --   -1.05647  -0.99286  -0.97439  -0.89588  -0.85786
 Alpha  occ. eigenvalues --   -0.83548  -0.79796  -0.78670  -0.72956  -0.71057
 Alpha  occ. eigenvalues --   -0.68444  -0.65027  -0.64144  -0.62201  -0.57977
 Alpha  occ. eigenvalues --   -0.57357  -0.56186  -0.54678  -0.54637  -0.52460
 Alpha  occ. eigenvalues --   -0.52106  -0.51315  -0.50787  -0.49151  -0.48339
 Alpha  occ. eigenvalues --   -0.47663  -0.46271  -0.45575  -0.44907  -0.44045
 Alpha  occ. eigenvalues --   -0.42597  -0.41980  -0.34471  -0.33860  -0.32725
 Alpha  occ. eigenvalues --   -0.31563  -0.25558
 Alpha virt. eigenvalues --    0.04321   0.04520   0.08680   0.10439   0.12549
 Alpha virt. eigenvalues --    0.13306   0.13491   0.14709   0.15393   0.16420
 Alpha virt. eigenvalues --    0.16961   0.17765   0.18178   0.18423   0.18948
 Alpha virt. eigenvalues --    0.19364   0.20192   0.20757   0.21637   0.22111
 Alpha virt. eigenvalues --    0.22421   0.23602   0.24489   0.25449   0.26403
 Alpha virt. eigenvalues --    0.26829   0.27636   0.28064   0.28542   0.30029
 Alpha virt. eigenvalues --    0.30174   0.30590   0.31349   0.32146   0.32689
 Alpha virt. eigenvalues --    0.33076   0.34760   0.35085   0.35327   0.36777
 Alpha virt. eigenvalues --    0.37434   0.37720   0.38458   0.39286   0.40289
 Alpha virt. eigenvalues --    0.40504   0.41009   0.41256   0.41867   0.44013
 Alpha virt. eigenvalues --    0.44830   0.45219   0.45480   0.45872   0.46448
 Alpha virt. eigenvalues --    0.47118   0.48014   0.48465   0.49144   0.49598
 Alpha virt. eigenvalues --    0.49797   0.50333   0.50580   0.51715   0.51822
 Alpha virt. eigenvalues --    0.52993   0.53436   0.54147   0.54641   0.55293
 Alpha virt. eigenvalues --    0.55629   0.56478   0.56674   0.57096   0.57373
 Alpha virt. eigenvalues --    0.57988   0.58708   0.59608   0.59805   0.61045
 Alpha virt. eigenvalues --    0.61548   0.62049   0.63058   0.64094   0.65082
 Alpha virt. eigenvalues --    0.65782   0.66816   0.67580   0.68442   0.70407
 Alpha virt. eigenvalues --    0.71059   0.71633   0.72920   0.74050   0.75334
 Alpha virt. eigenvalues --    0.75975   0.76350   0.78039   0.78481   0.79592
 Alpha virt. eigenvalues --    0.79731   0.82668   0.83011   0.83679   0.85136
 Alpha virt. eigenvalues --    0.85517   0.88012   0.88547   0.88972   0.89683
 Alpha virt. eigenvalues --    0.91519   0.93229   0.94306   0.95029   0.95268
 Alpha virt. eigenvalues --    0.96429   0.97882   0.98904   1.00046   1.01037
 Alpha virt. eigenvalues --    1.01837   1.03668   1.04399   1.05344   1.07521
 Alpha virt. eigenvalues --    1.08539   1.09793   1.11519   1.11695   1.13199
 Alpha virt. eigenvalues --    1.13789   1.15481   1.16121   1.17343   1.18350
 Alpha virt. eigenvalues --    1.20645   1.21938   1.22454   1.25387   1.26052
 Alpha virt. eigenvalues --    1.27847   1.28446   1.29930   1.31284   1.31897
 Alpha virt. eigenvalues --    1.33053   1.34279   1.35373   1.36921   1.37485
 Alpha virt. eigenvalues --    1.39074   1.40729   1.41063   1.41905   1.44532
 Alpha virt. eigenvalues --    1.46990   1.48233   1.48544   1.49038   1.51280
 Alpha virt. eigenvalues --    1.52029   1.53453   1.53888   1.54617   1.55157
 Alpha virt. eigenvalues --    1.56598   1.58008   1.58376   1.59141   1.60280
 Alpha virt. eigenvalues --    1.60734   1.61741   1.62718   1.62945   1.63323
 Alpha virt. eigenvalues --    1.64378   1.65677   1.66190   1.67627   1.68368
 Alpha virt. eigenvalues --    1.68459   1.70395   1.70848   1.72104   1.73182
 Alpha virt. eigenvalues --    1.73884   1.75566   1.75902   1.77502   1.78815
 Alpha virt. eigenvalues --    1.79521   1.80688   1.81115   1.82230   1.83056
 Alpha virt. eigenvalues --    1.83352   1.84906   1.87501   1.88671   1.89643
 Alpha virt. eigenvalues --    1.92156   1.94746   1.95557   1.96813   1.96872
 Alpha virt. eigenvalues --    1.98097   1.99783   2.01168   2.02421   2.03807
 Alpha virt. eigenvalues --    2.04539   2.06545   2.07584   2.08358   2.08598
 Alpha virt. eigenvalues --    2.10357   2.11017   2.13649   2.14089   2.15225
 Alpha virt. eigenvalues --    2.15957   2.16747   2.19019   2.19582   2.21647
 Alpha virt. eigenvalues --    2.22615   2.25486   2.26361   2.27569   2.29235
 Alpha virt. eigenvalues --    2.30527   2.32134   2.33517   2.33875   2.35634
 Alpha virt. eigenvalues --    2.36188   2.37951   2.39611   2.40436   2.41413
 Alpha virt. eigenvalues --    2.42374   2.43127   2.43511   2.46520   2.48202
 Alpha virt. eigenvalues --    2.49466   2.51200   2.52032   2.54634   2.55950
 Alpha virt. eigenvalues --    2.56106   2.59005   2.59753   2.60933   2.62043
 Alpha virt. eigenvalues --    2.63086   2.64434   2.65066   2.66858   2.68176
 Alpha virt. eigenvalues --    2.68420   2.69127   2.70063   2.70512   2.71981
 Alpha virt. eigenvalues --    2.73639   2.74488   2.75100   2.75707   2.76364
 Alpha virt. eigenvalues --    2.76722   2.77285   2.79830   2.80180   2.81350
 Alpha virt. eigenvalues --    2.81913   2.82209   2.83908   2.85306   2.85744
 Alpha virt. eigenvalues --    2.87387   2.87705   2.88612   2.89691   2.91380
 Alpha virt. eigenvalues --    2.91907   2.92923   2.94100   2.94967   2.95528
 Alpha virt. eigenvalues --    2.96706   2.98288   2.99032   3.00557   3.01010
 Alpha virt. eigenvalues --    3.01898   3.04965   3.06932   3.07488   3.10011
 Alpha virt. eigenvalues --    3.11558   3.12008   3.12645   3.13877   3.14324
 Alpha virt. eigenvalues --    3.14952   3.16970   3.18262   3.18574   3.19976
 Alpha virt. eigenvalues --    3.20730   3.21734   3.23052   3.23782   3.24202
 Alpha virt. eigenvalues --    3.24741   3.25697   3.26364   3.27443   3.28825
 Alpha virt. eigenvalues --    3.29267   3.31039   3.31241   3.31571   3.32852
 Alpha virt. eigenvalues --    3.35308   3.36040   3.36766   3.37713   3.39080
 Alpha virt. eigenvalues --    3.39328   3.40368   3.41173   3.42139   3.42220
 Alpha virt. eigenvalues --    3.43598   3.44137   3.45367   3.46829   3.48225
 Alpha virt. eigenvalues --    3.48805   3.49360   3.50442   3.52054   3.52979
 Alpha virt. eigenvalues --    3.54339   3.55648   3.57202   3.57492   3.59331
 Alpha virt. eigenvalues --    3.60440   3.61211   3.62376   3.63241   3.64082
 Alpha virt. eigenvalues --    3.64304   3.65838   3.66846   3.67696   3.71050
 Alpha virt. eigenvalues --    3.71414   3.73317   3.77222   3.78628   3.80244
 Alpha virt. eigenvalues --    3.81768   3.82360   3.83940   3.85564   3.88013
 Alpha virt. eigenvalues --    3.88558   3.90931   3.94159   3.95395   3.97761
 Alpha virt. eigenvalues --    3.98503   3.99274   4.02138   4.03030   4.05349
 Alpha virt. eigenvalues --    4.09199   4.11373   4.12949   4.15787   4.16517
 Alpha virt. eigenvalues --    4.20260   4.21508   4.23529   4.23820   4.25301
 Alpha virt. eigenvalues --    4.26319   4.27393   4.28671   4.30068   4.31086
 Alpha virt. eigenvalues --    4.31373   4.33177   4.34331   4.34661   4.37435
 Alpha virt. eigenvalues --    4.40854   4.42047   4.43190   4.47509   4.48133
 Alpha virt. eigenvalues --    4.52486   4.53973   4.56930   4.61304   4.62857
 Alpha virt. eigenvalues --    4.64328   4.70936   4.74742   4.75798   4.79354
 Alpha virt. eigenvalues --    4.81373   4.82543   4.86612   4.91778   4.93574
 Alpha virt. eigenvalues --    4.94324   4.97439   4.99163   4.99459   5.01752
 Alpha virt. eigenvalues --    5.03501   5.07891   5.08829   5.12615   5.15355
 Alpha virt. eigenvalues --    5.18982   5.19571   5.20010   5.23191   5.25234
 Alpha virt. eigenvalues --    5.25658   5.32564   5.32860   5.33953   5.34916
 Alpha virt. eigenvalues --    5.39791   5.43609   5.46367   5.48474   5.51572
 Alpha virt. eigenvalues --    5.55221   5.57596   5.59688   5.61914   5.62566
 Alpha virt. eigenvalues --    5.69239   5.74639   5.75900   5.91847   5.97254
 Alpha virt. eigenvalues --    6.08860   6.19648   6.42689   6.53098   6.72716
 Alpha virt. eigenvalues --    6.84052   6.94471   7.17964   7.23172  22.24685
 Alpha virt. eigenvalues --   22.46886  22.54204  22.68108  22.73744  22.79108
 Alpha virt. eigenvalues --   22.84153  22.91203  22.95263  23.36357  23.45251
 Alpha virt. eigenvalues --   32.23921  32.59286  44.07870
          Condensed to atoms (all electrons):
               1          2          3          4          5          6
     1  C    5.860736   0.392880  -0.132484   0.176754  -0.002044  -0.001010
     2  C    0.392880   4.441112   0.671360   0.012495  -0.002202   0.000147
     3  O   -0.132484   0.671360   8.170308   0.010910   0.000095  -0.000001
     4  C    0.176754   0.012495   0.010910   5.544742  -0.020044   0.004041
     5  C   -0.002044  -0.002202   0.000095  -0.020044   4.868992   0.408795
     6  H   -0.001010   0.000147  -0.000001   0.004041   0.408795   0.496087
     7  H    0.001649  -0.000074  -0.000001   0.001844   0.416433  -0.018683
     8  H    0.010808  -0.000878  -0.000153   0.003851   0.407942  -0.020486
     9  N   -0.050188  -0.002212   0.000576  -0.108043   0.262422  -0.021246
    10  H    0.005119  -0.000420  -0.000008  -0.010048  -0.017537  -0.004694
    11  H   -0.000528   0.001788  -0.000479   0.012923  -0.018461  -0.004860
    12  H   -0.054380   0.008493  -0.000396   0.487919  -0.003035   0.000705
    13  C    0.071401  -0.037235  -0.001380   0.086072   0.003667  -0.000450
    14  C   -0.042051   0.017349   0.000335  -0.049599  -0.000056   0.000070
    15  C    0.003315  -0.001108  -0.000030   0.002373   0.000022   0.000003
    16  C   -0.001048   0.000161   0.000003  -0.000121   0.000011   0.000000
    17  C    0.000359  -0.000003   0.000005   0.006928  -0.000030   0.000000
    18  C    0.019263  -0.004033  -0.000127  -0.113526   0.000105  -0.000003
    19  H   -0.000326   0.001047   0.000022  -0.012600   0.000271   0.000009
    20  H    0.000097  -0.000020  -0.000000  -0.000630   0.000001   0.000000
    21  H   -0.000001  -0.000002   0.000000   0.000047  -0.000000  -0.000000
    22  H   -0.000041   0.000012   0.000000  -0.000288  -0.000001   0.000000
    23  H    0.007898   0.000125  -0.000031  -0.006169   0.000022   0.000002
    24  H    0.430582  -0.064298   0.012231  -0.049011  -0.001548  -0.000011
    25  N   -0.157362   0.299346  -0.163056   0.041366  -0.000219  -0.000006
    26  C    0.008266  -0.036940   0.013700  -0.000299  -0.000001   0.000000
    27  H    0.002415  -0.039937   0.003505  -0.020332   0.000015  -0.000000
    28  H    0.001145   0.010913   0.003184  -0.000534  -0.000000   0.000000
    29  H    0.002731  -0.017582   0.008061  -0.001448   0.000003   0.000000
    30  H   -0.002280   0.003133   0.004000   0.001369  -0.000001   0.000000
               7          8          9         10         11         12
     1  C    0.001649   0.010808  -0.050188   0.005119  -0.000528  -0.054380
     2  C   -0.000074  -0.000878  -0.002212  -0.000420   0.001788   0.008493
     3  O   -0.000001  -0.000153   0.000576  -0.000008  -0.000479  -0.000396
     4  C    0.001844   0.003851  -0.108043  -0.010048   0.012923   0.487919
     5  C    0.416433   0.407942   0.262422  -0.017537  -0.018461  -0.003035
     6  H   -0.018683  -0.020486  -0.021246  -0.004694  -0.004860   0.000705
     7  H    0.499143  -0.022096  -0.038414  -0.004574   0.005499   0.000596
     8  H   -0.022096   0.508840  -0.045370   0.006982  -0.004984  -0.002119
     9  N   -0.038414  -0.045370   6.563332   0.337288   0.344305  -0.037782
    10  H   -0.004574   0.006982   0.337288   0.419454  -0.022146  -0.001064
    11  H    0.005499  -0.004984   0.344305  -0.022146   0.406615   0.002922
    12  H    0.000596  -0.002119  -0.037782  -0.001064   0.002922   0.518867
    13  C   -0.003115   0.003873  -0.004361   0.016513  -0.018047  -0.073089
    14  C    0.000022  -0.000613   0.013727  -0.009510   0.006145   0.010511
    15  C   -0.000014  -0.000014   0.001858  -0.000844   0.000063  -0.000965
    16  C    0.000005  -0.000001  -0.000095  -0.000112   0.000061   0.000332
    17  C   -0.000024   0.000011  -0.000628   0.000161  -0.000042   0.000457
    18  C    0.000018  -0.000047   0.013206  -0.000225  -0.000680  -0.005206
    19  H   -0.000067   0.000009   0.006491  -0.000742  -0.000030   0.000237
    20  H   -0.000000  -0.000000   0.000049   0.000007  -0.000023  -0.000003
    21  H    0.000000   0.000000  -0.000001   0.000001   0.000000  -0.000001
    22  H   -0.000000   0.000000   0.000005   0.000003  -0.000001  -0.000038
    23  H   -0.000046  -0.000041   0.001492  -0.000105  -0.000022   0.000502
    24  H    0.000259   0.000125   0.001469  -0.000130   0.000094  -0.011504
    25  N   -0.000000  -0.000039  -0.001804  -0.000243   0.002929  -0.000975
    26  C   -0.000000   0.000003  -0.000023   0.000004   0.000077   0.000102
    27  H    0.000010   0.000023  -0.001423   0.000206  -0.000490  -0.000416
    28  H    0.000000   0.000000  -0.000003  -0.000000  -0.000001   0.000005
    29  H    0.000000   0.000001   0.000030   0.000002  -0.000063  -0.000007
    30  H   -0.000000  -0.000001   0.000001  -0.000002   0.000017   0.000014
              13         14         15         16         17         18
     1  C    0.071401  -0.042051   0.003315  -0.001048   0.000359   0.019263
     2  C   -0.037235   0.017349  -0.001108   0.000161  -0.000003  -0.004033
     3  O   -0.001380   0.000335  -0.000030   0.000003   0.000005  -0.000127
     4  C    0.086072  -0.049599   0.002373  -0.000121   0.006928  -0.113526
     5  C    0.003667  -0.000056   0.000022   0.000011  -0.000030   0.000105
     6  H   -0.000450   0.000070   0.000003   0.000000   0.000000  -0.000003
     7  H   -0.003115   0.000022  -0.000014   0.000005  -0.000024   0.000018
     8  H    0.003873  -0.000613  -0.000014  -0.000001   0.000011  -0.000047
     9  N   -0.004361   0.013727   0.001858  -0.000095  -0.000628   0.013206
    10  H    0.016513  -0.009510  -0.000844  -0.000112   0.000161  -0.000225
    11  H   -0.018047   0.006145   0.000063   0.000061  -0.000042  -0.000680
    12  H   -0.073089   0.010511  -0.000965   0.000332   0.000457  -0.005206
    13  C    5.525831  -0.039813   0.064390  -0.132209   0.063098   0.376348
    14  C   -0.039813   5.641276   0.328116   0.080715  -0.120750   0.067663
    15  C    0.064390   0.328116   4.992388   0.390422   0.031108  -0.072371
    16  C   -0.132209   0.080715   0.390422   5.037497   0.382645   0.041292
    17  C    0.063098  -0.120750   0.031108   0.382645   4.999337   0.407154
    18  C    0.376348   0.067663  -0.072371   0.041292   0.407154   5.118077
    19  H   -0.086314   0.469512  -0.023445   0.009178  -0.003460   0.007445
    20  H    0.015546  -0.060569   0.454207  -0.056991   0.011114  -0.003429
    21  H   -0.004311   0.013046  -0.058132   0.455058  -0.056838   0.011247
    22  H    0.015499  -0.005533   0.012624  -0.059596   0.459818  -0.063612
    23  H   -0.079965   0.018623  -0.005131   0.011972  -0.054846   0.462411
    24  H    0.011451  -0.001490   0.000056  -0.000007  -0.000004  -0.000300
    25  N   -0.023314   0.003360   0.000367   0.000259   0.000666  -0.000287
    26  C   -0.000154   0.002762  -0.000322  -0.000018  -0.000091   0.000024
    27  H    0.039139  -0.031991   0.004558  -0.001275   0.001235   0.002066
    28  H    0.000142   0.000534  -0.000093   0.000012  -0.000040   0.000091
    29  H    0.000969  -0.000925   0.000043  -0.000009   0.000007   0.000016
    30  H   -0.001895   0.001584  -0.000162   0.000066  -0.000043   0.000030
              19         20         21         22         23         24
     1  C   -0.000326   0.000097  -0.000001  -0.000041   0.007898   0.430582
     2  C    0.001047  -0.000020  -0.000002   0.000012   0.000125  -0.064298
     3  O    0.000022  -0.000000   0.000000   0.000000  -0.000031   0.012231
     4  C   -0.012600  -0.000630   0.000047  -0.000288  -0.006169  -0.049011
     5  C    0.000271   0.000001  -0.000000  -0.000001   0.000022  -0.001548
     6  H    0.000009   0.000000  -0.000000   0.000000   0.000002  -0.000011
     7  H   -0.000067  -0.000000   0.000000  -0.000000  -0.000046   0.000259
     8  H    0.000009  -0.000000   0.000000   0.000000  -0.000041   0.000125
     9  N    0.006491   0.000049  -0.000001   0.000005   0.001492   0.001469
    10  H   -0.000742   0.000007   0.000001   0.000003  -0.000105  -0.000130
    11  H   -0.000030  -0.000023   0.000000  -0.000001  -0.000022   0.000094
    12  H    0.000237  -0.000003  -0.000001  -0.000038   0.000502  -0.011504
    13  C   -0.086314   0.015546  -0.004311   0.015499  -0.079965   0.011451
    14  C    0.469512  -0.060569   0.013046  -0.005533   0.018623  -0.001490
    15  C   -0.023445   0.454207  -0.058132   0.012624  -0.005131   0.000056
    16  C    0.009178  -0.056991   0.455058  -0.059596   0.011972  -0.000007
    17  C   -0.003460   0.011114  -0.056838   0.459818  -0.054846  -0.000004
    18  C    0.007445  -0.003429   0.011247  -0.063612   0.462411  -0.000300
    19  H    0.461222  -0.005603  -0.000036   0.000013   0.000098  -0.000092
    20  H   -0.005603   0.505619  -0.006758  -0.000031   0.000017  -0.000000
    21  H   -0.000036  -0.006758   0.506393  -0.006663  -0.000039   0.000000
    22  H    0.000013  -0.000031  -0.006663   0.508658  -0.007089  -0.000001
    23  H    0.000098   0.000017  -0.000039  -0.007089   0.506982  -0.000240
    24  H   -0.000092  -0.000000   0.000000  -0.000001  -0.000240   0.551832
    25  N    0.002185  -0.000114   0.000003   0.000006  -0.000297   0.012803
    26  C    0.000240   0.000003  -0.000001  -0.000001   0.000012  -0.000841
    27  H   -0.004019   0.000093  -0.000001   0.000016  -0.000344   0.000268
    28  H    0.000151   0.000001  -0.000000   0.000000   0.000001  -0.000015
    29  H   -0.000085   0.000004  -0.000000   0.000000  -0.000001   0.000025
    30  H    0.000068  -0.000007   0.000000  -0.000001   0.000015  -0.000126
              25         26         27         28         29         30
     1  C   -0.157362   0.008266   0.002415   0.001145   0.002731  -0.002280
     2  C    0.299346  -0.036940  -0.039937   0.010913  -0.017582   0.003133
     3  O   -0.163056   0.013700   0.003505   0.003184   0.008061   0.004000
     4  C    0.041366  -0.000299  -0.020332  -0.000534  -0.001448   0.001369
     5  C   -0.000219  -0.000001   0.000015  -0.000000   0.000003  -0.000001
     6  H   -0.000006   0.000000  -0.000000   0.000000   0.000000   0.000000
     7  H   -0.000000  -0.000000   0.000010   0.000000   0.000000  -0.000000
     8  H   -0.000039   0.000003   0.000023   0.000000   0.000001  -0.000001
     9  N   -0.001804  -0.000023  -0.001423  -0.000003   0.000030   0.000001
    10  H   -0.000243   0.000004   0.000206  -0.000000   0.000002  -0.000002
    11  H    0.002929   0.000077  -0.000490  -0.000001  -0.000063   0.000017
    12  H   -0.000975   0.000102  -0.000416   0.000005  -0.000007   0.000014
    13  C   -0.023314  -0.000154   0.039139   0.000142   0.000969  -0.001895
    14  C    0.003360   0.002762  -0.031991   0.000534  -0.000925   0.001584
    15  C    0.000367  -0.000322   0.004558  -0.000093   0.000043  -0.000162
    16  C    0.000259  -0.000018  -0.001275   0.000012  -0.000009   0.000066
    17  C    0.000666  -0.000091   0.001235  -0.000040   0.000007  -0.000043
    18  C   -0.000287   0.000024   0.002066   0.000091   0.000016   0.000030
    19  H    0.002185   0.000240  -0.004019   0.000151  -0.000085   0.000068
    20  H   -0.000114   0.000003   0.000093   0.000001   0.000004  -0.000007
    21  H    0.000003  -0.000001  -0.000001  -0.000000  -0.000000   0.000000
    22  H    0.000006  -0.000001   0.000016   0.000000   0.000000  -0.000001
    23  H   -0.000297   0.000012  -0.000344   0.000001  -0.000001   0.000015
    24  H    0.012803  -0.000841   0.000268  -0.000015   0.000025  -0.000126
    25  N    6.796131   0.260462   0.365243  -0.035055  -0.039432  -0.056640
    26  C    0.260462   4.806087  -0.034502   0.400023   0.411958   0.428451
    27  H    0.365243  -0.034502   0.486002  -0.009215   0.010748  -0.007545
    28  H   -0.035055   0.400023  -0.009215   0.547330  -0.021721  -0.026992
    29  H   -0.039432   0.411958   0.010748  -0.021721   0.572206  -0.046972
    30  H   -0.056640   0.428451  -0.007545  -0.026992  -0.046972   0.592463
 Mulliken charges:
               1
     1  C   -0.551675
     2  C    0.346585
     3  O   -0.600152
     4  C   -0.000940
     5  C   -0.303616
     6  H    0.161589
     7  H    0.161633
     8  H    0.154374
     9  N   -0.234660
    10  H    0.286666
    11  H    0.287418
    12  H    0.159320
    13  C    0.211714
    14  C   -0.312452
    15  C   -0.123279
    16  C   -0.158210
    17  C   -0.127305
    18  C   -0.262610
    19  H    0.178620
    20  H    0.147421
    21  H    0.146990
    22  H    0.146242
    23  H    0.144192
    24  H    0.108421
    25  N   -0.306281
    26  C   -0.258983
    27  H    0.235947
    28  H    0.130137
    29  H    0.121442
    30  H    0.111452
 Sum of Mulliken charges =  -0.00000
 Mulliken charges with hydrogens summed into heavy atoms:
               1
     1  C   -0.443254
     2  C    0.346585
     3  O   -0.600152
     4  C    0.158380
     5  C    0.173980
     9  N    0.339424
    13  C    0.211714
    14  C   -0.133832
    15  C    0.024142
    16  C   -0.011220
    17  C    0.018937
    18  C   -0.118417
    25  N   -0.070334
    26  C    0.104047
 APT charges:
               1
     1  C   -0.805680
     2  C   -0.427537
     3  O   -0.002282
     4  C   -0.492904
     5  C   -1.359595
     6  H    0.733797
     7  H    0.440558
     8  H    0.324898
     9  N   -0.442720
    10  H    0.505855
    11  H    0.406284
    12  H    0.513860
    13  C   -0.105782
    14  C   -0.592094
    15  C   -0.613053
    16  C   -0.596075
    17  C   -0.579934
    18  C   -0.625330
    19  H    0.327115
    20  H    0.640830
    21  H    0.884195
    22  H    0.773365
    23  H    0.429049
    24  H    0.489987
    25  N    0.035895
    26  C   -1.373761
    27  H    0.147229
    28  H    0.384135
    29  H    0.557036
    30  H    0.422655
 Sum of APT charges =  -0.00000
 APT charges with hydrogens summed into heavy atoms:
               1
     1  C   -0.315692
     2  C   -0.427537
     3  O   -0.002282
     4  C    0.020957
     5  C    0.139658
     9  N    0.469419
    13  C   -0.105782
    14  C   -0.264979
    15  C    0.027777
    16  C    0.288121
    17  C    0.193431
    18  C   -0.196281
    25  N    0.183124
    26  C   -0.009935
 Electronic spatial extent (au):  <R**2>=           3125.0331
 Charge=             -0.0000 electrons
 Dipole moment (field-independent basis, Debye):
    X=             -8.4925    Y=              7.7646    Z=             -5.7005  Tot=             12.8416
 Quadrupole moment (field-independent basis, Debye-Ang):
   XX=           -107.2330   YY=            -67.0327   ZZ=            -79.1754
   XY=             16.4639   XZ=            -10.3312   YZ=             -0.7161
 Traceless Quadrupole moment (field-independent basis, Debye-Ang):
   XX=            -22.7526   YY=             17.4477   ZZ=              5.3050
   XY=             16.4639   XZ=            -10.3312   YZ=             -0.7161
 Octapole moment (field-independent basis, Debye-Ang**2):
  XXX=           -107.9528  YYY=             63.5335  ZZZ=            -17.7984  XYY=              9.8669
  XXY=             24.0019  XXZ=            -28.0107  XZZ=            -14.6403  YZZ=             13.7599
  YYZ=            -23.3309  XYZ=              4.5328
 Hexadecapole moment (field-independent basis, Debye-Ang**3):
 XXXX=          -2414.5134 YYYY=          -1294.3673 ZZZZ=           -480.7095 XXXY=            199.8807
 XXXZ=           -105.2014 YYYX=             46.0079 YYYZ=            -32.6665 ZZZX=            -23.4492
 ZZZY=            -14.4439 XXYY=           -626.6221 XXZZ=           -435.4734 YYZZ=           -307.1782
 XXYZ=             26.4078 YYXZ=            -22.1365 ZZXY=             23.3979
 N-N= 8.907266724629D+02 E-N=-3.209637250876D+03  KE= 6.105065847493D+02
  Exact polarizability:   0.000   0.000   0.000   0.000   0.000   0.000
 Approx polarizability: 179.125   5.468 157.258   6.175   1.849 169.533
   1 Symmetry operations used in ECPInt.
 ECPInt:  NShTT=   23871 NPrTT=   71232 LenC2=   22365 LenP2D=   49750.
 LDataN:  DoStor=T MaxTD1= 8 Len=  415
 D2PCM: PCM CHGder 2nd derivatives, FixD1E=F FixD2E=F DoIter=F DoCFld=F I1PDM=0
 Calling FoFJK, ICntrl=    100147 FMM=F ISym2X=0 I1Cent= 0 IOpClX= 0 NMat=1 NMatS=1 NMatT=0.
 ***** Axes restored to original set *****
 -------------------------------------------------------------------
 Center     Atomic                   Forces (Hartrees/Bohr)
 Number     Number              X              Y              Z
 -------------------------------------------------------------------
      1        6           0.000129731    0.000599294    0.000507302
      2        6           0.000044646    0.000009075   -0.000053871
      3        8          -0.000010340   -0.000001054   -0.000012829
      4        6           0.000453854   -0.000140472    0.000223002
      5        6           0.000679569   -0.000310396   -0.000089220
      6        1           0.000108079   -0.000057022    0.000007379
      7        1          -0.000054404    0.000037683   -0.000086514
      8        1          -0.000094458   -0.000003302    0.000112351
      9        7           0.000529304   -0.000219640   -0.000112181
     10        1          -0.000299182    0.000876592    0.000782453
     11        1          -0.000831633   -0.000371413   -0.000610143
     12        1          -0.000953185    0.000124733   -0.000345020
     13        6           0.000389160   -0.000553552   -0.000318464
     14        6          -0.000051396    0.000131556   -0.000014967
     15        6           0.000003858    0.000004459   -0.000015074
     16        6           0.000002198    0.000009986   -0.000005284
     17        6          -0.000002763    0.000003670   -0.000003441
     18        6           0.000053846   -0.000115549    0.000015214
     19        1          -0.000057557    0.000008362    0.000001396
     20        1           0.000004894    0.000004093   -0.000000663
     21        1          -0.000002181   -0.000001528   -0.000008623
     22        1          -0.000002360   -0.000005597   -0.000004083
     23        1           0.000003037   -0.000012286   -0.000002997
     24        1          -0.000031931   -0.000034724    0.000050586
     25        7          -0.000016351   -0.000005500    0.000041269
     26        6           0.000021479    0.000019027   -0.000017804
     27        1           0.000010899    0.000000233   -0.000017398
     28        1          -0.000001484    0.000003232   -0.000016891
     29        1          -0.000006458    0.000016800    0.000005292
     30        1          -0.000018869   -0.000016760   -0.000010773
 -------------------------------------------------------------------
 Cartesian Forces:  Max     0.000953185 RMS     0.000262352
 FormGI is forming the generalized inverse of G from B-inverse, IUseBI=4.

 GradGradGradGradGradGradGradGradGradGradGradGradGradGradGradGradGradGrad
 Berny optimization.
 Internal  Forces:  Max     0.000669369 RMS     0.000161158
 Search for a saddle point.
 Step number   1 out of a maximum of   70
 All quantities printed in internal units (Hartrees-Bohrs-Radians)
 Swapping is turned off.
 Second derivative matrix not updated -- analytic derivatives used.
 ITU=  0
     Eigenvalues ---   -0.02908   0.00066   0.00128   0.00270   0.00394
     Eigenvalues ---    0.00438   0.00491   0.00854   0.01257   0.01429
     Eigenvalues ---    0.01699   0.01796   0.01841   0.02261   0.02483
     Eigenvalues ---    0.02513   0.02622   0.02728   0.02919   0.02983
     Eigenvalues ---    0.03751   0.04705   0.04846   0.04902   0.05333
     Eigenvalues ---    0.05751   0.05926   0.06001   0.06160   0.07088
     Eigenvalues ---    0.08638   0.10943   0.11433   0.11644   0.12077
     Eigenvalues ---    0.12160   0.12353   0.12897   0.12910   0.13405
     Eigenvalues ---    0.13928   0.15085   0.17095   0.17508   0.17648
     Eigenvalues ---    0.18236   0.18651   0.19225   0.19498   0.19734
     Eigenvalues ---    0.20245   0.20876   0.22230   0.25896   0.28884
     Eigenvalues ---    0.31824   0.32569   0.34131   0.34223   0.34468
     Eigenvalues ---    0.34591   0.34692   0.34859   0.34993   0.36001
     Eigenvalues ---    0.36125   0.36302   0.36322   0.36424   0.36500
     Eigenvalues ---    0.36607   0.38892   0.40042   0.42153   0.42642
     Eigenvalues ---    0.42941   0.44773   0.44956   0.47052   0.47836
     Eigenvalues ---    0.48216   0.51950   0.59783   0.70566
 Eigenvectors required to have negative eigenvalues:
                          R6        R2        A10       D10       D7
   1                    0.85621  -0.17532  -0.15807  -0.14529  -0.14515
                          D28       D29       D25       D24       A11
   1                   -0.12517  -0.12342   0.11556   0.11381  -0.10902
 RFO step:  Lambda0=6.448585079D-08 Lambda=-1.64035412D-03.
 Linear search not attempted -- option 19 set.
 Maximum step size (   0.080) exceeded in Quadratic search.
    -- Step size scaled by   0.796
 Iteration  1 RMS(Cart)=  0.11322963 RMS(Int)=  0.00673204
 Iteration  2 RMS(Cart)=  0.01132652 RMS(Int)=  0.00006838
 Iteration  3 RMS(Cart)=  0.00010751 RMS(Int)=  0.00001124
 Iteration  4 RMS(Cart)=  0.00000001 RMS(Int)=  0.00001124
 Variable       Old X    -DE/DX   Delta X   Delta X   Delta X     New X
                                 (Linear)    (Quad)   (Total)
    R1        2.70310   0.00000   0.00000   0.00325   0.00325   2.70635
    R2        2.68124  -0.00006   0.00000  -0.00873  -0.00873   2.67251
    R3        2.04649  -0.00001   0.00000  -0.00083  -0.00083   2.04566
    R4        2.35917  -0.00001   0.00000  -0.00184  -0.00184   2.35733
    R5        2.60607  -0.00002   0.00000  -0.00205  -0.00205   2.60402
    R6        3.39197   0.00001   0.00000   0.03125   0.03125   3.42322
    R7        2.05590   0.00003   0.00000   0.00023   0.00023   2.05613
    R8        2.85025   0.00002   0.00000   0.00089   0.00089   2.85114
    R9        2.05688  -0.00000   0.00000   0.00010   0.00010   2.05698
   R10        2.05597   0.00000   0.00000   0.00017   0.00017   2.05615
   R11        2.05860  -0.00002   0.00000   0.00040   0.00040   2.05899
   R12        2.76832  -0.00005   0.00000  -0.00343  -0.00343   2.76489
   R13        1.91884  -0.00001   0.00000   0.00005   0.00005   1.91889
   R14        1.91759   0.00002   0.00000  -0.00013  -0.00013   1.91746
   R15        2.63001   0.00002   0.00000  -0.00050  -0.00049   2.62952
   R16        2.63458   0.00000   0.00000   0.00125   0.00125   2.63582
   R17        2.62592  -0.00001   0.00000   0.00094   0.00094   2.62686
   R18        2.04699  -0.00003   0.00000  -0.00095  -0.00095   2.04604
   R19        2.61632  -0.00001   0.00000  -0.00079  -0.00079   2.61553
   R20        2.04562  -0.00000   0.00000   0.00002   0.00002   2.04564
   R21        2.62489  -0.00001   0.00000   0.00042   0.00042   2.62531
   R22        2.04528   0.00000   0.00000   0.00002   0.00002   2.04530
   R23        2.61582  -0.00000   0.00000  -0.00077  -0.00077   2.61505
   R24        2.04589   0.00000   0.00000   0.00003   0.00003   2.04593
   R25        2.04780  -0.00000   0.00000  -0.00006  -0.00006   2.04774
   R26        2.72942  -0.00001   0.00000   0.00011   0.00011   2.72953
   R27        1.89769  -0.00001   0.00000   0.00021   0.00021   1.89791
   R28        2.05873   0.00001   0.00000  -0.00016  -0.00016   2.05857
   R29        2.05924  -0.00001   0.00000   0.00012   0.00012   2.05937
   R30        2.06955   0.00001   0.00000  -0.00023  -0.00023   2.06932
    A1        2.28175  -0.00002   0.00000  -0.01044  -0.01044   2.27131
    A2        1.97322   0.00001   0.00000   0.00213   0.00212   1.97534
    A3        2.02053   0.00001   0.00000   0.00758   0.00757   2.02810
    A4        2.12575   0.00002   0.00000   0.00075   0.00075   2.12649
    A5        2.09773  -0.00002   0.00000  -0.00374  -0.00374   2.09399
    A6        2.05962   0.00000   0.00000   0.00291   0.00291   2.06253
    A7        1.93986  -0.00002   0.00000  -0.00176  -0.00176   1.93810
    A8        1.92927   0.00004   0.00000   0.00810   0.00808   1.93735
    A9        2.14583   0.00000   0.00000   0.00038   0.00035   2.14618
   A10        1.66347  -0.00003   0.00000  -0.00669  -0.00668   1.65679
   A11        1.81505   0.00000   0.00000  -0.00441  -0.00441   1.81064
   A12        1.90632  -0.00001   0.00000   0.00170   0.00166   1.90798
   A13        1.91151   0.00002   0.00000   0.00016   0.00016   1.91167
   A14        1.90979   0.00001   0.00000   0.00127   0.00127   1.91106
   A15        1.93887  -0.00000   0.00000   0.00226   0.00226   1.94114
   A16        1.91089   0.00001   0.00000  -0.00041  -0.00042   1.91047
   A17        1.90236  -0.00003   0.00000  -0.00098  -0.00098   1.90138
   A18        1.89015  -0.00000   0.00000  -0.00235  -0.00235   1.88780
   A19        1.92233  -0.00005   0.00000  -0.01421  -0.01422   1.90811
   A20        1.97848  -0.00001   0.00000  -0.00172  -0.00176   1.97673
   A21        1.80900   0.00004   0.00000   0.01198   0.01198   1.82098
   A22        1.93744   0.00001   0.00000   0.00349   0.00344   1.94088
   A23        1.92119   0.00000   0.00000  -0.00090  -0.00084   1.92035
   A24        1.89069  -0.00000   0.00000   0.00214   0.00212   1.89281
   A25        2.17682   0.00007   0.00000   0.00711   0.00711   2.18393
   A26        2.04141  -0.00005   0.00000  -0.00600  -0.00600   2.03541
   A27        2.06488  -0.00002   0.00000  -0.00109  -0.00109   2.06379
   A28        2.10864   0.00001   0.00000  -0.00004  -0.00004   2.10860
   A29        2.10709   0.00003   0.00000   0.00390   0.00390   2.11099
   A30        2.06721  -0.00004   0.00000  -0.00378  -0.00378   2.06342
   A31        2.09938   0.00000   0.00000   0.00081   0.00081   2.10019
   A32        2.08513  -0.00000   0.00000  -0.00077  -0.00078   2.08436
   A33        2.09867  -0.00000   0.00000  -0.00003  -0.00003   2.09864
   A34        2.08391  -0.00000   0.00000  -0.00056  -0.00056   2.08336
   A35        2.09969  -0.00000   0.00000   0.00031   0.00031   2.09999
   A36        2.09959   0.00000   0.00000   0.00025   0.00025   2.09984
   A37        2.09787  -0.00000   0.00000  -0.00017  -0.00017   2.09770
   A38        2.09662  -0.00000   0.00000   0.00017   0.00017   2.09679
   A39        2.08868   0.00000   0.00000   0.00001   0.00001   2.08869
   A40        2.11166   0.00001   0.00000   0.00104   0.00104   2.11270
   A41        2.08040  -0.00001   0.00000  -0.00109  -0.00109   2.07931
   A42        2.09112  -0.00000   0.00000   0.00005   0.00005   2.09116
   A43        2.10551   0.00001   0.00000   0.00230   0.00227   2.10779
   A44        2.04475   0.00001   0.00000   0.00207   0.00204   2.04679
   A45        2.02073  -0.00001   0.00000   0.00163   0.00160   2.02232
   A46        1.89347  -0.00000   0.00000  -0.00010  -0.00010   1.89336
   A47        1.93222  -0.00002   0.00000   0.00030   0.00030   1.93252
   A48        1.96848   0.00002   0.00000  -0.00039  -0.00039   1.96809
   A49        1.89161   0.00001   0.00000  -0.00020  -0.00020   1.89141
   A50        1.89465  -0.00001   0.00000  -0.00002  -0.00002   1.89463
   A51        1.88174   0.00001   0.00000   0.00041   0.00041   1.88215
    D1        3.04641   0.00000   0.00000   0.00801   0.00801   3.05442
    D2       -0.08139   0.00002   0.00000   0.01425   0.01426  -0.06714
    D3        0.04573   0.00000   0.00000   0.01389   0.01389   0.05962
    D4       -3.08207   0.00002   0.00000   0.02014   0.02013  -3.06194
    D5       -1.52456   0.00004   0.00000   0.03428   0.03428  -1.49028
    D6        2.93425   0.00006   0.00000   0.03900   0.03902   2.97327
    D7        0.64020   0.00003   0.00000   0.02619   0.02619   0.66639
    D8        1.47303   0.00004   0.00000   0.02787   0.02786   1.50089
    D9       -0.35134   0.00006   0.00000   0.03259   0.03260  -0.31875
   D10       -2.64538   0.00003   0.00000   0.01978   0.01976  -2.62562
   D11       -2.94817  -0.00002   0.00000  -0.01249  -0.01250  -2.96067
   D12       -0.31833   0.00000   0.00000   0.00063   0.00064  -0.31770
   D13        0.20670  -0.00000   0.00000  -0.00646  -0.00646   0.20024
   D14        2.83654   0.00002   0.00000   0.00666   0.00667   2.84320
   D15       -1.42966   0.00062   0.00000   0.20739   0.20743  -1.22223
   D16        2.67095   0.00064   0.00000   0.21522   0.21522   2.88617
   D17        0.62513   0.00062   0.00000   0.20621   0.20618   0.83131
   D18        0.56771   0.00064   0.00000   0.21274   0.21277   0.78048
   D19       -1.61487   0.00067   0.00000   0.22058   0.22056  -1.39431
   D20        2.62249   0.00065   0.00000   0.21156   0.21153   2.83402
   D21        2.51102   0.00062   0.00000   0.21162   0.21166   2.72268
   D22        0.32845   0.00065   0.00000   0.21946   0.21945   0.54789
   D23       -1.71738   0.00063   0.00000   0.21044   0.21042  -1.50696
   D24       -1.60140  -0.00010   0.00000  -0.05333  -0.05333  -1.65473
   D25        1.52608  -0.00009   0.00000  -0.05134  -0.05134   1.47474
   D26        0.61860  -0.00012   0.00000  -0.05998  -0.05998   0.55862
   D27       -2.53711  -0.00011   0.00000  -0.05799  -0.05799  -2.59510
   D28        2.37843  -0.00015   0.00000  -0.06861  -0.06861   2.30982
   D29       -0.77728  -0.00014   0.00000  -0.06662  -0.06662  -0.84390
   D30        3.00417  -0.00006   0.00000  -0.02785  -0.02784   2.97633
   D31       -1.07316  -0.00009   0.00000  -0.03814  -0.03814  -1.11129
   D32        1.02008  -0.00008   0.00000  -0.03381  -0.03382   0.98626
   D33       -1.17123  -0.00006   0.00000  -0.02687  -0.02686  -1.19809
   D34        1.03462  -0.00009   0.00000  -0.03716  -0.03716   0.99747
   D35        3.12786  -0.00008   0.00000  -0.03283  -0.03284   3.09502
   D36        0.90641  -0.00007   0.00000  -0.02928  -0.02927   0.87714
   D37        3.11226  -0.00010   0.00000  -0.03957  -0.03957   3.07270
   D38       -1.07769  -0.00009   0.00000  -0.03524  -0.03525  -1.11294
   D39        3.11929   0.00001   0.00000   0.00090   0.00090   3.12020
   D40        0.00197  -0.00001   0.00000  -0.00317  -0.00317  -0.00119
   D41       -0.00801  -0.00000   0.00000  -0.00108  -0.00108  -0.00909
   D42       -3.12533  -0.00002   0.00000  -0.00515  -0.00515  -3.13048
[...]
 00000554,0.00019076,0.00014620,-0.00005355,0.00000941,-0.00003959,0.00
 004873,0.00002095,-0.00001953,0.00000243,0.00001070,-0.00001097,0.0000
 0156,0.00001849,0.00002990,0.00000605,0.00009199,-0.00006545,0.0000319
 9,0.08281003,0.13125144,-0.11700506,-0.10410218,-0.13965877,-0.0075541
 1,-0.00483233,-0.00806485,0.00122752,0.00315278,-0.00077154,-0.0039016
 8,-0.00507324,-0.00217793,-0.00024842,-0.00034518,0.00027892,0.0002766
 7,0.00008784,0.00020693,0.00007244,-0.00002379,0.00002376,0.00045016,0
 .00086877,-0.00086467,-0.00098346,0.00038236,-0.00209526,0.00007543,0.
 00033104,-0.00027358,-0.00000152,-0.00006879,0.00002948,0.00057398,0.0
 0276525,-0.00152483,0.00101006,-0.00018067,0.00392220,0.00034137,0.000
 34020,-0.00006007,0.00007192,0.00017515,0.00007610,0.00002226,-0.00000
 458,0.00018306,-0.00019517,-0.00019217,0.00000725,-0.00043260,-0.00013
 517,-0.00017417,0.00002010,-0.00003810,-0.00001691,0.00002042,0.000044
 31,0.00000646,-0.00001130,0.00000386,-0.00000454,-0.00001937,-0.000054
 53,-0.00001027,-0.00007024,0.00004339,-0.00007374,0.12575433,0.1105596
 1,0.14922534,0.02133273,0.00025870,0.00375911,-0.14025503,-0.01696203,
 -0.06335553,-0.06054754,-0.01669875,-0.06352279,-0.00295598,0.00232988
 ,-0.00407194,0.00039885,0.00026715,0.00032336,-0.00013593,-0.00007913,
 -0.00006129,0.00001072,-0.00002214,-0.00003585,-0.00006943,0.00012926,
 -0.00011524,0.00059365,-0.00203899,0.00239430,-0.00023447,-0.00030742,
 0.00033940,0.00007153,-0.00037888,0.00012088,0.00002014,-0.00056349,0.
 00038537,-0.00298440,0.00105989,-0.00053495,-0.00216395,0.00199167,0.0
 0111151,0.00132564,0.00083453,-0.00008696,-0.00010794,-0.00017416,0.00
 087467,-0.00047069,-0.00037931,-0.00039153,0.00085528,0.00052157,-0.00
 066214,-0.00012487,-0.00028044,-0.00004641,-0.00004711,0.00003221,-0.0
 0004685,-0.00003591,-0.00001851,0.00002442,-0.00001260,-0.00001957,0.0
 0001556,-0.00001342,-0.00002786,0.00012887,-0.00066210,0.00399118,0.00
 107650,0.73777728,-0.00843157,-0.02670612,-0.03501717,-0.02297158,-0.1
 7552720,-0.10285199,-0.00310729,0.02096896,0.00205516,-0.00730205,0.00
 805482,-0.00919473,0.00092020,0.00076591,0.00076132,-0.00024951,-0.000
 27909,-0.00003704,0.00003258,-0.00012447,-0.00015417,0.00008079,0.0003
 5233,-0.00034062,0.00017119,-0.00407125,0.00647225,-0.00043741,-0.0001
 7983,0.00055711,0.00002593,-0.00043115,-0.00018006,0.00003018,-0.00028
 262,0.00056214,0.00127702,-0.00191035,-0.00016111,0.00231583,-0.000272
 38,-0.00029330,-0.00047074,-0.00049922,0.00021630,0.00046105,0.0002810
 1,-0.00061143,0.00053758,0.00024634,0.00038392,0.00007657,-0.00034686,
 0.00061784,-0.00009122,0.00013667,-0.00010972,0.00006430,0.00010279,0.
 00008034,0.00003578,0.00006680,0.00000022,0.00008375,0.00007125,-0.000
 03511,-0.00013274,-0.00002599,0.00010078,0.00264524,-0.00448265,-0.003
 50108,-0.11975101,0.53695835,0.00666787,-0.03556053,-0.01095412,-0.044
 39925,-0.06995306,-0.13833778,-0.05829400,-0.00553628,-0.02029442,-0.0
 1085948,0.01128112,-0.01431528,0.00140415,0.00084423,0.00141583,-0.000
 38866,-0.00036463,-0.00012152,0.00009597,-0.00013039,-0.00015996,0.000
 05239,0.00056807,-0.00053693,0.00125999,-0.00739310,0.00898734,-0.0006
 1732,-0.00073068,0.00115978,0.00014249,-0.00133884,0.00002811,-0.00006
 420,-0.00032283,0.00024534,-0.00060200,-0.00201241,0.00056333,-0.00018
 639,0.00090405,-0.00010537,0.00046928,0.00071357,0.00013769,0.00033383
 ,0.00013702,0.00043183,-0.00027790,-0.00021136,-0.00001278,0.00061533,
 0.00016761,0.00025653,0.00003696,-0.00050671,0.00028419,0.00009286,0.0
 0008262,0.00004174,0.00001386,0.00001351,0.00003309,0.00008808,0.00004
 640,-0.00002173,-0.00019238,-0.00003928,0.00018917,-0.00056228,-0.0023
 5071,0.00183383,0.18740926,0.20078367,0.25535233,-0.00000535,-0.002487
 44,-0.00462692,0.01497716,-0.01240937,0.00458487,-0.00276030,-0.001477
 16,0.00043869,-0.00157402,0.00110369,-0.00183287,0.00020710,0.00015388
 ,0.00016173,-0.00005682,-0.00006245,-0.00001080,0.00000905,-0.00002847
 ,-0.00002807,0.00001597,0.00008738,-0.00006753,0.00014477,-0.00093155,
 0.00133474,-0.00010997,-0.00010248,0.00014050,-0.00002753,0.00001325,-
 0.00006352,0.00011804,-0.00016863,0.00015777,-0.00075663,-0.00013588,0
 .00018354,-0.00050135,0.00025675,0.00008032,0.00030414,0.00027630,-0.0
 0007703,-0.00002287,-0.00005971,0.00032642,-0.00019111,-0.00018372,-0.
 00020137,0.00037864,0.00039986,-0.00017008,0.00001741,-0.00008690,0.00
 000511,0.00001776,-0.00000597,-0.00000476,-0.00000298,0.00000412,0.000
 00727,0.00000577,0.00000256,-0.00000119,-0.00001568,-0.00000655,0.0000
 3578,0.00063652,-0.00077546,-0.00094499,-0.11830315,0.04260289,-0.0100
 7246,0.59437412,-0.00223224,0.00496570,0.00024977,-0.00612355,-0.03087
 765,-0.01403900,0.00758946,0.00029807,0.00516603,0.00146901,-0.0020602
 9,0.00235885,-0.00029453,-0.00017810,-0.00027394,0.00007484,0.00008999
 ,0.00000758,-0.00000114,0.00004038,0.00004136,-0.00002550,-0.00009001,
 0.00009475,-0.00008191,0.00108136,-0.00121750,0.00010287,0.00006044,-0
 .00012424,-0.00002754,-0.00020004,0.00015053,-0.00002025,0.00017636,0.
 00000155,0.00004353,0.00037068,-0.00022532,-0.00069115,0.00035659,0.00
 023734,0.00032055,0.00033152,-0.00004802,-0.00010599,-0.00013724,0.000
 17678,-0.00011371,-0.00013893,-0.00004109,0.00004050,0.00027325,-0.000
 31699,0.00010248,-0.00008339,0.00010598,-0.00004454,-0.00003895,-0.000
 04640,-0.00004692,-0.00002209,0.00000628,-0.00004662,-0.00002979,0.000
 02720,0.00004031,0.00002023,0.00001347,0.00064377,0.00076639,-0.000487
 45,0.05906003,-0.22033769,-0.04544126,0.02026882,0.51038360,-0.0064048
 7,0.00090749,0.00130988,0.00484856,-0.03225117,-0.01546371,0.00655508,
 -0.00058966,-0.00118436,0.00142265,-0.00098069,0.00151470,-0.00025055,
 -0.00016071,-0.00012630,0.00007277,0.00005212,0.00001703,0.00000166,0.
 00004174,0.00002559,0.00001210,-0.00005574,0.00004127,0.00003604,0.000
 75020,-0.00134520,0.00010096,0.00001372,-0.00008511,-0.00003431,-0.000
 15950,0.00012577,0.00010027,0.00007859,-0.00008829,-0.00000466,0.00037
 803,0.00016440,-0.00037383,0.00012249,-0.00002740,0.00022414,0.0002124
 2,-0.00000243,-0.00008446,-0.00007877,0.00017957,-0.00016249,-0.000055
 86,-0.00007538,0.00005570,-0.00001803,-0.00017120,0.00005288,-0.000073
 96,0.00009141,-0.00002287,0.00000272,-0.00002201,-0.00001113,-0.000024
 04,0.00000583,-0.00001882,-0.00001224,0.00000900,0.00002339,-0.0000201
 3,-0.00000194,-0.00005705,-0.00139381,0.00041648,-0.00537719,-0.031675
 43,-0.06989031,0.01972564,-0.00092930,0.57106568,-0.00033273,0.0009862
 4,0.00012911,-0.01220606,0.00125345,0.00187932,0.00146149,-0.00097745,
 -0.00221319,0.00144741,-0.00060664,0.00087155,-0.00010413,-0.00004923,
 -0.00001655,0.00001072,0.00000498,0.00000451,-0.00000261,0.00002192,0.
 00001429,-0.00001607,-0.00004109,0.00002034,-0.00020563,0.00026402,-0.
 00070514,0.00004594,0.00017834,-0.00007976,0.00009069,-0.00029622,0.00
 012734,-0.00031772,-0.00012938,0.00000745,-0.00084076,0.00320279,0.002
 60693,-0.00158736,0.00091450,-0.00172601,-0.00124617,-0.00063498,-0.00
 004230,0.00005885,-0.00007454,-0.00042248,0.00036481,0.00006335,0.0000
 3373,-0.00046240,0.00018012,0.00035516,-0.00021025,0.00026644,0.000102
 93,0.00009825,0.00002220,0.00009411,0.00010569,0.00003342,-0.00002457,
 0.00005981,0.00000494,-0.00006204,0.00004348,0.00002776,-0.00017483,-0
 .00023717,0.00034718,0.00026657,-0.43393373,0.08192256,-0.07733233,-0.
 00222216,-0.00191913,0.00162715,0.44797698,0.00259526,-0.00373499,-0.0
 0121424,-0.01696246,0.01342691,0.01130453,-0.00332795,-0.00000630,-0.0
 0795723,-0.00216725,-0.00037710,-0.00363384,0.00000444,0.00009772,0.00
 006260,-0.00000136,0.00002370,-0.00002028,0.00003993,0.00002690,-0.000
 00684,-0.00000407,0.00005499,-0.00004906,0.00047795,-0.00100124,0.0014
 2173,-0.00005606,-0.00018192,0.00019998,-0.00025422,-0.00054677,0.0002
 8736,0.00012712,0.00000934,0.00023254,0.00162009,-0.00203573,-0.000810
 65,0.00081569,-0.00051031,0.00056383,0.00107597,0.00082420,-0.00014421
 ,-0.00043469,-0.00029361,0.00121677,-0.00095457,-0.00051683,-0.0005593
 6,0.00095110,0.00062009,-0.00075132,0.00045997,-0.00056195,0.00041054,
 -0.00007342,-0.00003991,-0.00009499,-0.00007076,-0.00005706,0.00003776
 ,-0.00006419,-0.00005001,0.00004151,-0.00000768,-0.00006228,0.00016373
 ,-0.00001617,-0.00015458,0.00059770,0.06892082,-0.07050332,-0.01941018
 ,0.03009040,-0.00582870,0.00499608,-0.08396033,0.07572500,0.00001416,0
 .00155467,-0.00039331,-0.02558679,0.00904721,-0.00873483,-0.00461293,-
 0.00611955,-0.00074639,0.00019797,-0.00249453,0.00121155,-0.00002692,-
 0.00004313,-0.00017098,0.00002033,0.00002766,0.00001143,-0.00002441,-0
 .00001563,0.00001116,-0.00001388,-0.00004024,0.00005611,-0.00007644,0.
 00059086,-0.00058616,0.00002521,0.00004901,-0.00009637,0.00010129,0.00
 045961,-0.00011486,-0.00000472,0.00008988,-0.00006130,0.00086958,-0.00
 051524,0.00058613,0.00031365,0.00012933,0.00085214,-0.00044320,-0.0005
 8732,-0.00008072,-0.00019791,-0.00010793,-0.00030269,0.00028608,0.0001
 5052,-0.00017820,0.00028428,0.00046479,-0.00054957,-0.00039997,0.00081
 154,-0.00059258,-0.00000661,-0.00004937,-0.00001547,-0.00000086,0.0000
 3867,-0.00003589,-0.00003129,-0.00003459,0.00000935,0.00000575,0.00004
 267,-0.00003172,0.00035270,0.00073689,-0.00042287,-0.05817491,-0.01545
 486,-0.02415287,0.01074453,0.00084265,-0.00218361,0.07442378,0.0134061
 2,0.03731486,0.00064885,-0.00005361,0.00008559,-0.00253846,0.00279003,
 -0.00002757,0.00083129,-0.00221070,-0.00105879,-0.00009408,0.00014408,
 -0.00013349,0.00002113,0.00001337,0.00001435,-0.00000644,-0.00000627,-
 0.00000151,-0.00000029,-0.00000252,-0.00000236,-0.00000079,0.00000345,
 -0.00000409,0.00000877,-0.00007932,0.00010168,-0.00000760,-0.00000475,
 0.00001129,0.00000418,0.00000759,-0.00000862,-0.00000984,-0.00002117,0
 .00001284,0.00004174,-0.00002880,0.00002212,0.00013737,-0.00008641,-0.
 00003738,-0.00004477,-0.00007104,-0.00000218,0.00000498,0.00001048,-0.
 00001958,0.00001432,0.00001343,0.00000158,-0.00000449,-0.00002225,0.00
 002199,-0.00000736,0.00001269,-0.00000902,0.00000192,0.00000414,0.0000
 0403,0.00000411,0.00000234,-0.00000128,0.00000304,0.00000195,-0.000002
 06,-0.00000209,0.00000047,-0.00000196,0.00000781,0.00013020,0.00005622
 ,0.00706070,0.00896049,0.01161592,-0.14747173,-0.05939758,-0.11976297,
 0.00097832,-0.00021673,0.00019608,0.15338017,-0.00082866,-0.00091424,-
 0.00108360,0.00566574,-0.00320994,0.00113443,-0.00035098,0.00123902,0.
 00010329,-0.00041110,0.00052053,-0.00060938,0.00006696,0.00004858,0.00
 006952,-0.00001694,-0.00002446,-0.00000249,0.00000233,-0.00000712,-0.0
 0001079,0.00000831,0.00002921,-0.00002760,0.00004493,-0.00031254,0.000
 38692,-0.00003013,-0.00003087,0.00004441,-0.00000215,0.00001508,-0.000
 02925,0.00004556,-0.00005716,0.00003576,-0.00009914,-0.00008561,0.0000
 4953,0.00002419,0.00001152,-0.00002549,-0.00000031,0.00000664,0.000007
 59,0.00001289,0.00001886,0.00001744,-0.00000814,-0.00000351,-0.0000133
 8,0.00004456,0.00000893,0.00003234,-0.00001515,-0.00000762,-0.00000549
 ,0.00000922,0.00000638,0.00000612,0.00000496,0.00000225,0.00000085,0.0
 0000708,0.00000563,-0.00000272,-0.00000774,-0.00000570,0.00000706,0.00
 014903,-0.00053530,-0.00016898,-0.02225760,-0.02000942,-0.02780151,-0.
 05115852,-0.08007084,-0.06266645,-0.00030637,0.00105387,0.00002904,0.0
 5831161,0.09476126,-0.00004147,-0.00059715,-0.00030974,0.00140102,0.00
 028547,0.00115568,-0.00002999,-0.00050652,0.00011914,-0.00024704,0.000
 32659,-0.00038599,0.00004342,0.00002861,0.00004056,-0.00001097,-0.0000
 1304,-0.00000168,0.00000083,-0.00000505,-0.00000652,0.00000364,0.00001
 560,-0.00001635,0.00001680,-0.00019120,0.00023887,-0.00001851,-0.00001
 511,0.00002400,0.00000010,0.00001285,-0.00001600,0.00001360,-0.0000267
 1,0.00001173,-0.00002355,-0.00005452,0.00004652,0.00007693,-0.00003559
 ,-0.00003508,-0.00002232,-0.00002558,0.00000273,0.00000999,0.00001588,
 -0.00000285,0.00000326,0.00000353,-0.00000757,0.00001973,0.00000495,0.
 00002531,-0.00000855,0.00000539,-0.00001103,0.00000667,0.00000263,0.00
 000445,0.00000421,0.00000256,-0.00000027,0.00000449,0.00000296,-0.0000
 0221,-0.00000583,-0.00000071,0.00000306,0.00004401,-0.00017924,-0.0000
 1094,-0.00397687,-0.00374085,-0.00547531,-0.11641785,-0.06910909,-0.19
 043618,0.00009172,-0.00019258,0.00044659,0.12833755,0.07778589,0.20200
 995,-0.00009656,0.00018759,0.00052941,-0.00248995,-0.00114110,-0.00298
 170,0.00212593,-0.00139429,0.00000572,0.00012716,-0.00033661,0.0003462
 4,-0.00003760,-0.00002476,-0.00003455,0.00000903,0.00001357,-0.0000002
 9,0.00000015,0.00000546,0.00000633,-0.00000509,-0.00001338,0.00001311,
 0.00003100,0.00009421,-0.00014609,0.00001072,-0.00000169,-0.00000518,-
 0.00000510,-0.00003679,0.00002638,-0.00001267,0.00005067,-0.00003275,-
 0.00004886,0.00009189,-0.00000436,-0.00010801,0.00005043,0.00005379,0.
 00006218,0.00005941,-0.00000646,-0.00002175,-0.00002416,0.00004561,-0.
 00003363,-0.00002532,-0.00002344,0.00003506,0.00006302,-0.00007475,0.0
 0002261,-0.00002094,0.00001698,-0.00000673,-0.00000666,-0.00000820,-0.
 00000695,-0.00000510,0.00000130,-0.00000779,-0.00000547,0.00000473,0.0
 0000647,-0.00000039,0.00000407,0.00004044,0.00015073,-0.00001994,-0.00
 810245,0.00912072,0.00171465,-0.28597787,-0.00855507,0.08492252,0.0008
 6913,0.00055148,0.00237074,-0.01481854,-0.00079712,0.00639008,0.309677
 78,0.00018852,-0.00110279,0.00020485,0.00277368,0.00204335,0.00213900,
 -0.00170143,0.00017542,-0.00076140,-0.00035784,0.00063175,-0.00056228,
 0.00007411,0.00004253,0.00007363,-0.00001869,-0.00002243,-0.00000298,-
 0.00000044,-0.00000829,-0.00001076,0.00000395,0.00002150,-0.00002529,0
 .00000700,-0.00027940,0.00032182,-0.00001916,-0.00001302,0.00003121,0.
 00001514,0.00003151,-0.00003234,-0.00000735,-0.00003140,-0.00000245,0.
 00011062,-0.00010050,0.00001752,0.00025871,-0.00010962,-0.00007865,-0.
 00012606,-0.00012690,0.00002927,0.00004628,0.00005117,-0.00010156,0.00
 006191,0.00006913,0.00005339,-0.00006325,-0.00014652,0.00012539,-0.000
 03587,0.00002896,-0.00002320,0.00001007,0.00001426,0.00001420,0.000013
 56,0.00000585,-0.00000205,0.00001435,0.00000833,-0.00000810,-0.0000115
 3,-0.00000637,-0.00000546,-0.00013803,-0.00018397,0.00008204,0.0373805
 7,-0.00667010,-0.01104667,-0.01511681,-0.04818097,0.00598018,0.0005944
 2,-0.00371902,-0.00389636,-0.00957644,-0.00041130,0.00500406,0.0030468
 4,0.05787722,-0.00008001,-0.00032689,-0.00008042,0.00228879,-0.0000188
 6,0.00156053,-0.00066382,0.00127542,0.00044459,-0.00013471,0.00016841,
 -0.00016262,0.00001959,0.00001510,0.00001617,-0.00000450,-0.00000408,-
 0.00000028,-0.00000067,-0.00000259,-0.00000359,0.00000023,0.00000284,-
 0.00000596,-0.00001007,-0.00006702,0.00010303,-0.00000575,0.00000223,0
 .00000429,0.00000194,0.00000968,-0.00000725,-0.00001286,0.00000807,-0.
 00000884,0.00002516,-0.00001095,0.00002623,0.00005856,-0.00003543,-0.0
 0002586,-0.00002212,-0.00002636,0.00000404,0.00000519,0.00000668,-0.00
 001655,0.00001063,0.00001087,0.00000855,-0.00001107,-0.00001729,0.0000
 2377,-0.00000863,0.00000477,-0.00000267,0.00000176,0.00000397,0.000002
 21,0.00000252,0.00000134,-0.00000042,0.00000217,0.00000168,-0.00000113
 ,-0.00000200,-0.00000130,-0.00000048,-0.00002518,-0.00005908,0.0000068
 9,0.00541547,-0.00429206,-0.00091685,0.08355115,0.00393232,-0.07748819
 ,-0.00011905,-0.00023174,-0.00094418,-0.02237106,0.00023549,0.00958147
 ,-0.09330617,-0.00298362,0.07685999,-0.00032862,0.00018884,0.00024813,
 -0.00061009,-0.00198396,-0.00110604,0.00091786,0.00092866,0.00069176,0
 .00016495,-0.00015515,0.00018201,-0.00003636,-0.00002381,-0.00002472,0
 .00000947,0.00001072,0.00000082,0.00000137,0.00000615,0.00000448,-0.00
 000211,-0.00001015,0.00000988,-0.00000804,0.00011673,-0.00015991,0.000
 01724,0.00000615,-0.00001284,-0.00000387,-0.00004409,0.00002891,-0.000
 01261,0.00001694,-0.00000578,0.00000627,0.00006613,0.00001174,-0.00005
 747,0.00001636,-0.00000376,0.00003251,0.00002923,-0.00000165,-0.000017
 01,-0.00002223,0.00002302,-0.00002016,-0.00001100,-0.00000675,0.000004
 01,0.00000396,-0.00003708,0.00001203,-0.00001233,0.00001780,-0.0000036
 6,-0.00000175,-0.00000387,-0.00000320,-0.00000394,0.00000074,-0.000005
 54,-0.00000252,0.00000245,0.00000350,-0.00000402,-0.00000079,-0.000017
 70,-0.00000170,0.00007192,0.00171417,0.01158046,-0.00816424,-0.0512069
 2,-0.01002880,0.01278368,0.00031339,0.00084170,-0.00060529,0.00185779,
 0.01189268,-0.01566512,-0.00123810,-0.01742684,0.02539451,0.04851693,0
 .00177408,-0.00202672,-0.00152736,0.00571523,0.00456690,0.00764546,-0.
 00264106,0.00122509,-0.00108527,-0.00129158,0.00130120,-0.00161964,0.0
 0021194,0.00014093,0.00015698,-0.00005612,-0.00005517,-0.00001004,0.00
 000323,-0.00002945,-0.00002805,0.00000636,0.00006549,-0.00005842,0.000
 04102,-0.00078135,0.00114336,-0.00008736,-0.00004626,0.00009925,0.0000
 1625,0.00008204,-0.00008584,-0.00000220,-0.00010273,0.00007228,-0.0001
 3892,-0.00019233,0.00003948,0.00020364,-0.00004590,-0.00002495,-0.0000
 9443,-0.00008215,0.00000642,0.00006637,0.00005669,-0.00005946,0.000057
 05,0.00002877,0.00002183,0.00003158,-0.00000276,0.00011968,-0.00004610
 ,0.00003277,-0.00005268,0.00002120,0.00001061,0.00001797,0.00001385,0.
 00001405,-0.00000167,0.00002140,0.00001273,-0.00001024,-0.00002429,-0.
 00000286,0.00000852,0.00007150,-0.00008949,-0.00022606,0.00318181,-0.0
 3534552,0.01460858,-0.01006283,-0.13093990,0.11760973,-0.00129325,-0.0
 0168110,0.00088760,0.00137125,0.00795789,-0.00880403,-0.00109719,0.000
 11164,0.00239840,0.00402757,0.15581688,0.00070253,0.00043425,-0.000469
 13,-0.00157056,-0.00124258,0.00095271,0.00095324,-0.00007868,0.0003694
 4,0.00006587,-0.00001909,-0.00010675,-0.00000454,0.00000149,-0.0000109
 9,0.00000119,0.00000220,-0.00000050,-0.00000060,0.00000149,-0.00000044
 ,-0.00000355,-0.00000395,0.00000167,-0.00004042,0.00002539,0.00004415,
 0.00000136,0.00000816,-0.00000809,0.00000202,-0.00001297,0.00000770,-0
 .00001332,-0.00001323,0.00003538,0.00001346,0.00000059,-0.00001856,0.0
 0000636,-0.00001236,0.00000949,0.00000624,0.00000633,-0.00000291,-0.00
 000460,0.00000217,0.00000562,-0.00000364,-0.00000915,-0.00000212,0.000
 00816,0.00001263,-0.00000964,0.00000760,-0.00000256,0.00000490,-0.0000
 0126,-0.00000215,-0.00000094,-0.00000279,-0.00000003,0.00000014,-0.000
 00218,-0.00000128,0.00000177,0.00000090,0.00000503,0.00000364,0.000012
 16,0.00009153,-0.00001176,-0.00291821,-0.00494032,0.01433509,0.0130413
 9,0.11888715,-0.21637499,0.00026227,0.00013374,-0.00010476,0.00296271,
 0.01250141,-0.01699236,0.00019224,0.00546660,-0.00897647,-0.01367403,-
 0.13124182,0.22731869\\-0.00000191,0.00000336,0.00000167,-0.00000022,0
 .00000411,0.00000461,-0.00000048,0.00000502,0.00000654,-0.00000298,0.0
 0000185,-0.00000090,-0.00000299,0.00000119,-0.00000319,-0.00000230,-0.
 00000017,-0.00000348,-0.00000515,0.00000172,-0.00000490,-0.00000325,0.
 00000308,-0.00000097,-0.00000135,-0.00000060,-0.00000305,-0.00000138,-
 0.00000241,-0.00000450,0.00000037,-0.00000175,-0.00000204,-0.00000483,
 0.00000232,-0.00000330,-0.00000104,-0.00000094,-0.00000178,0.00000147,
 -0.00000289,-0.00000219,0.00000267,-0.00000499,-0.00000289,0.00000137,
 -0.00000404,-0.00000300,-0.00000108,-0.00000140,-0.00000308,-0.0000017
 9,0.00000022,-0.00000249,0.00000331,-0.00000412,-0.00000175,0.00000438
 ,-0.00000721,-0.00000298,0.00000232,-0.00000543,-0.00000358,-0.0000018
 5,-0.00000051,-0.00000324,-0.00000382,0.00000247,-0.00000234,-0.000003
 96,0.00000553,0.00000142,0.00000201,0.00000111,0.00000486,0.00000455,0
 .00000096,0.00000761,0.00000226,-0.00000012,0.00000274,0.00000612,-0.0
 0000102,0.00000751,0.00000532,0.00000194,0.00000960,0.00000422,0.00000
 274,0.00000911\\\@


 KNOWLEDGE IS OF TWO KINDS:  WE KNOW A SUBJECT OURSELVES OR WE KNOW 
 WHERE WE CAN FIND INFORMATION UPON IT.

                                    -- SAMUEL JOHNSON
 Job cpu time:       0 days 13 hours 51 minutes 20.3 seconds.
 Elapsed time:       0 days  0 hours 52 minutes  4.9 seconds.
 File lengths (MBytes):  RWF=    839 Int=      0 D2E=      0 Chk=     38 Scr=      1
 Normal termination of Gaussian 16 at Thu Feb 11 05:21:36 2021.
