 Entering Gaussian System, Link 0=g16
 Initial command:
 /apps/gaussian/16/A.03/g16/l1.exe "/beegfs/scratch/user/q/tla25/Gau-58814.inp" -scrdir="/beegfs/scratch/user/q/tla25/"
 Entering Link 1 = /apps/gaussian/16/A.03/g16/l1.exe PID=     58815.
  
 Copyright (c) 1988,1990,1992,1993,1995,1998,2003,2009,2016,
            Gaussian, Inc.  All Rights Reserved.
  
 This is part of the Gaussian(R) 16 program.  It is based on
 the Gaussian(R) 09 system (copyright 2009, Gaussian, Inc.),
 the Gaussian(R) 03 system (copyright 2003, Gaussian, Inc.),
 the Gaussian(R) 98 system (copyright 1998, Gaussian, Inc.),
 the Gaussian(R) 94 system (copyright 1995, Gaussian, Inc.),
 the Gaussian 92(TM) system (copyright 1992, Gaussian, Inc.),
 the Gaussian 90(TM) system (copyright 1990, Gaussian, Inc.),
 the Gaussian 88(TM) system (copyright 1988, Gaussian, Inc.),
 the Gaussian 86(TM) system (copyright 1986, Carnegie Mellon
 University), and the Gaussian 82(TM) system (copyright 1983,
 Carnegie Mellon University). Gaussian is a federally registered
 trademark of Gaussian, Inc.
  
 This software contains proprietary and confidential information,
 including trade secrets, belonging to Gaussian, Inc.
  
 This software is provided under written license and may be
 used, copied, transmitted, or stored only in accord with that
 written license.
  
 The following legend is applicable only to US Government
 contracts under FAR:
  
                    RESTRICTED RIGHTS LEGEND
  
 Use, reproduction and disclosure by the US Government is
 subject to restrictions as set forth in subparagraphs (a)
 and (c) of the Commercial Computer Software - Restricted
 Rights clause in FAR 52.227-19.
  
 Gaussian, Inc.
 340 Quinnipiac St., Bldg. 40, Wallingford CT 06492
  
  
 ---------------------------------------------------------------
 Warning -- This program may not be used in any manner that
 competes with the business of Gaussian, Inc. or will provide
 assistance to any competitor of Gaussian, Inc.  The licensee
 of this program is prohibited from giving any competitor of
 Gaussian, Inc. access to this program.  By using this program,
 the user acknowledges that Gaussian, Inc. is engaged in the
 business of creating and licensing software in the field of
 computational chemistry and represents and warrants to the
 licensee that it is not a competitor of Gaussian, Inc. and that
 it will not use this program in any manner prohibited above.
 ---------------------------------------------------------------
  

 Cite this work as:
 Gaussian 16, Revision A.03,
 M. J. Frisch, G. W. Trucks, H. B. Schlegel, G. E. Scuseria, 
 M. A. Robb, J. R. Cheeseman, G. Scalmani, V. Barone, 
 G. A. Petersson, H. Nakatsuji, X. Li, M. Caricato, A. V. Marenich, 
 J. Bloino, B. G. Janesko, R. Gomperts, B. Mennucci, H. P. Hratchian, 
 J. V. Ortiz, A. F. Izmaylov, J. L. Sonnenberg, D. Williams-Young, 
 F. Ding, F. Lipparini, F. Egidi, J. Goings, B. Peng, A. Petrone, 
 T. Henderson, D. Ranasinghe, V. G. Zakrzewski, J. Gao, N. Rega, 
 G. Zheng, W. Liang, M. Hada, M. Ehara, K. Toyota, R. Fukuda, 
 J. Hasegawa, M. Ishida, T. Nakajima, Y. Honda, O. Kitao, H. Nakai, 
 T. Vreven, K. Throssell, J. A. Montgomery, Jr., J. E. Peralta, 
 F. Ogliaro, M. J. Bearpark, J. J. Heyd, E. N. Brothers, K. N. Kudin, 
 V. N. Staroverov, T. A. Keith, R. Kobayashi, J. Normand, 
 K. Raghavachari, A. P. Rendell, J. C. Burant, S. S. Iyengar, 
 J. Tomasi, M. Cossi, J. M. Millam, M. Klene, C. Adamo, R. Cammi, 
 J. W. Ochterski, R. L. Martin, K. Morokuma, O. Farkas, 
 J. B. Foresman, and D. J. Fox, Gaussian, Inc., Wallingford CT, 2016.
 
 ******************************************
 Gaussian 16:  ES64L-G16RevA.03 25-Dec-2016
                11-Feb-2021 
 ******************************************
 %nprocshared=16
 Will use up to   16 processors via shared memory.
 %mem=48GB
 ----------------------------------------------------------------------
 # wB97XD def2tzvp, opt=(ts, noeigen, calcfc, maxcycles=70, maxstep=5),
  freq=noraman, scrf=(iefpcm, solvent=water)
 ----------------------------------------------------------------------
 1/5=1,6=70,8=5,10=4,11=1,18=20,26=3,38=1/1,3;
 2/9=110,12=2,17=6,18=5,40=1/2;
 3/5=44,7=101,11=2,25=1,30=1,70=2201,71=2,72=1,74=-58,140=1/1,2,3;
 4//1;
 5/5=2,38=5,53=1/2;
 8/6=4,10=90,11=11/1;
 11/6=1,8=1,9=11,15=111,16=1/1,2,10;
 10/6=1,13=1/2;
 6/7=2,8=2,9=2,10=2,28=1/1;
 7/10=1,18=20,25=1/1,2,3,16;
 1/5=1,6=70,8=5,10=4,11=1,18=20,26=3/3(2);
 2/9=110/2;
 99//99;
 2/9=110/2;
 3/5=44,7=101,11=2,25=1,30=1,70=2205,71=1,72=1,74=-58/1,2,3;
 4/5=5,16=3,69=1/1;
 5/5=2,38=5,53=1/2;
 7//1,2,3,16;
 1/5=1,6=70,8=5,11=1,18=20,26=3/3(-5);
 2/9=110/2;
 6/7=2,8=2,9=2,10=2,19=2,28=1/1;
 99/9=1/99;
 ------------------------
 2_iteration/TS-201-2.out
 ------------------------
 Symbolic Z-matrix:
 Charge =  0 Multiplicity = 1
 C                     0.60086  -0.6385   -0.12729 
 C                     0.22547  -1.93037  -0.60398 
 O                     0.95607  -2.86074  -0.95534 
 C                    -0.40921   0.30721   0.13293 
 C                    -1.13763   2.87354  -1.01541 
 H                    -1.14528   3.57943  -1.8467 
 H                    -2.16359   2.66007  -0.71869 
 H                    -0.61876   3.32781  -0.17176 
 N                    -0.47623   1.6202   -1.36419 
 H                    -0.93901   1.15275  -2.13356 
 H                     0.48955   1.76245  -1.63454 
 H                    -0.12604   1.0989    0.81866 
 C                    -1.86271   0.00726   0.2591 
 C                    -2.65547  -0.46289  -0.78646 
 C                    -4.00563  -0.70788  -0.5954 
 C                    -4.5871   -0.48887   0.64545 
 C                    -3.8111   -0.01111   1.69056 
 C                    -2.46296   0.24553   1.49351 
 H                    -2.22244  -0.63959  -1.76309 
 H                    -4.60524  -1.06981  -1.42066 
 H                    -5.64204  -0.68084   0.79332 
 H                    -4.25642   0.17335   2.65977 
 H                    -1.8654    0.63251   2.31035 
 C                     2.00867  -0.24375   0.09713 
 C                     3.04369  -1.19037   0.17131 
 C                     4.35596  -0.8139    0.40778 
 C                     4.6962    0.52057   0.57798 
 C                     3.69262   1.4738    0.51082 
 C                     2.37893   1.09909   0.27395 
 H                     2.80528  -2.23372   0.03831 
 H                     5.12231  -1.57816   0.46217 
 H                     5.72302   0.81145   0.75967 
 H                     3.92832   2.52314   0.64052 
 H                     1.64002   1.8887    0.23976 
 H                    -0.86276  -2.10004  -0.6333 
 
 Add virtual bond connecting atoms N9         and C4         Dist= 3.77D+00.

 GradGradGradGradGradGradGradGradGradGradGradGradGradGradGradGradGradGrad
 Berny optimization.
 Initialization pass.
                           ----------------------------
                           !    Initial Parameters    !
                           ! (Angstroms and Degrees)  !
 --------------------------                            --------------------------
 ! Name  Definition              Value          Derivative Info.                !
 --------------------------------------------------------------------------------
 ! R1    R(1,2)                  1.4273         calculate D2E/DX2 analytically  !
 ! R2    R(1,4)                  1.408          calculate D2E/DX2 analytically  !
 ! R3    R(1,24)                 1.4792         calculate D2E/DX2 analytically  !
 ! R4    R(2,3)                  1.234          calculate D2E/DX2 analytically  !
 ! R5    R(2,35)                 1.1018         calculate D2E/DX2 analytically  !
 ! R6    R(4,9)                  1.9924         calculate D2E/DX2 analytically  !
 ! R7    R(4,12)                 1.085          calculate D2E/DX2 analytically  !
 ! R8    R(4,13)                 1.4895         calculate D2E/DX2 analytically  !
 ! R9    R(5,6)                  1.0906         calculate D2E/DX2 analytically  !
 ! R10   R(5,7)                  1.0891         calculate D2E/DX2 analytically  !
 ! R11   R(5,8)                  1.0896         calculate D2E/DX2 analytically  !
 ! R12   R(5,9)                  1.4594         calculate D2E/DX2 analytically  !
 ! R13   R(9,10)                 1.0122         calculate D2E/DX2 analytically  !
 ! R14   R(9,11)                 1.0129         calculate D2E/DX2 analytically  !
 ! R15   R(13,14)                1.3938         calculate D2E/DX2 analytically  !
 ! R16   R(13,18)                1.3931         calculate D2E/DX2 analytically  !
 ! R17   R(14,15)                1.3854         calculate D2E/DX2 analytically  !
 ! R18   R(14,19)                1.0828         calculate D2E/DX2 analytically  !
 ! R19   R(15,16)                1.3877         calculate D2E/DX2 analytically  !
 ! R20   R(15,20)                1.0824         calculate D2E/DX2 analytically  !
 ! R21   R(16,17)                1.3866         calculate D2E/DX2 analytically  !
 ! R22   R(16,21)                1.0824         calculate D2E/DX2 analytically  !
 ! R23   R(17,18)                1.3864         calculate D2E/DX2 analytically  !
 ! R24   R(17,22)                1.0825         calculate D2E/DX2 analytically  !
 ! R25   R(18,23)                1.0835         calculate D2E/DX2 analytically  !
 ! R26   R(24,25)                1.4046         calculate D2E/DX2 analytically  !
 ! R27   R(24,29)                1.4041         calculate D2E/DX2 analytically  !
 ! R28   R(25,26)                1.3855         calculate D2E/DX2 analytically  !
 ! R29   R(25,30)                1.0785         calculate D2E/DX2 analytically  !
 ! R30   R(26,27)                1.3876         calculate D2E/DX2 analytically  !
 ! R31   R(26,31)                1.0837         calculate D2E/DX2 analytically  !
 ! R32   R(27,28)                1.3858         calculate D2E/DX2 analytically  !
 ! R33   R(27,32)                1.0826         calculate D2E/DX2 analytically  !
 ! R34   R(28,29)                1.3865         calculate D2E/DX2 analytically  !
 ! R35   R(28,33)                1.0833         calculate D2E/DX2 analytically  !
 ! R36   R(29,34)                1.082          calculate D2E/DX2 analytically  !
 ! A1    A(2,1,4)              118.7518         calculate D2E/DX2 analytically  !
 ! A2    A(2,1,24)             122.8562         calculate D2E/DX2 analytically  !
 ! A3    A(4,1,24)             118.3905         calculate D2E/DX2 analytically  !
 ! A4    A(1,2,3)              128.447          calculate D2E/DX2 analytically  !
 ! A5    A(1,2,35)             114.083          calculate D2E/DX2 analytically  !
 ! A6    A(3,2,35)             117.4575         calculate D2E/DX2 analytically  !
 ! A7    A(1,4,9)              109.1409         calculate D2E/DX2 analytically  !
 ! A8    A(1,4,12)             114.8154         calculate D2E/DX2 analytically  !
 ! A9    A(1,4,13)             125.4833         calculate D2E/DX2 analytically  !
 ! A10   A(9,4,12)              90.1621         calculate D2E/DX2 analytically  !
 ! A11   A(9,4,13)              99.4119         calculate D2E/DX2 analytically  !
 ! A12   A(12,4,13)            110.3706         calculate D2E/DX2 analytically  !
 ! A13   A(6,5,7)              109.1424         calculate D2E/DX2 analytically  !
 ! A14   A(6,5,8)              108.8844         calculate D2E/DX2 analytically  !
 ! A15   A(6,5,9)              112.1399         calculate D2E/DX2 analytically  !
 ! A16   A(7,5,8)              108.6231         calculate D2E/DX2 analytically  !
 ! A17   A(7,5,9)              108.8862         calculate D2E/DX2 analytically  !
 ! A18   A(8,5,9)              109.1022         calculate D2E/DX2 analytically  !
 ! A19   A(4,9,5)              113.6782         calculate D2E/DX2 analytically  !
 ! A20   A(4,9,10)             106.3903         calculate D2E/DX2 analytically  !
 ! A21   A(4,9,11)             105.1305         calculate D2E/DX2 analytically  !
 ! A22   A(5,9,10)             111.7798         calculate D2E/DX2 analytically  !
 ! A23   A(5,9,11)             112.041          calculate D2E/DX2 analytically  !
 ! A24   A(10,9,11)            107.3311         calculate D2E/DX2 analytically  !
 ! A25   A(4,13,14)            124.0155         calculate D2E/DX2 analytically  !
 ! A26   A(4,13,18)            117.456          calculate D2E/DX2 analytically  !
 ! A27   A(14,13,18)           118.5095         calculate D2E/DX2 analytically  !
 ! A28   A(13,14,15)           120.6962         calculate D2E/DX2 analytically  !
 ! A29   A(13,14,19)           120.2755         calculate D2E/DX2 analytically  !
 ! A30   A(15,14,19)           119.0282         calculate D2E/DX2 analytically  !
 ! A31   A(14,15,16)           120.2478         calculate D2E/DX2 analytically  !
 ! A32   A(14,15,20)           119.5934         calculate D2E/DX2 analytically  !
 ! A33   A(16,15,20)           120.1587         calculate D2E/DX2 analytically  !
 ! A34   A(15,16,17)           119.5924         calculate D2E/DX2 analytically  !
 ! A35   A(15,16,21)           120.168          calculate D2E/DX2 analytically  !
 ! A36   A(17,16,21)           120.2369         calculate D2E/DX2 analytically  !
 ! A37   A(16,17,18)           120.0556         calculate D2E/DX2 analytically  !
 ! A38   A(16,17,22)           120.2216         calculate D2E/DX2 analytically  !
 ! A39   A(18,17,22)           119.7194         calculate D2E/DX2 analytically  !
 ! A40   A(13,18,17)           120.8798         calculate D2E/DX2 analytically  !
 ! A41   A(13,18,23)           119.4351         calculate D2E/DX2 analytically  !
 ! A42   A(17,18,23)           119.6846         calculate D2E/DX2 analytically  !
 ! A43   A(1,24,25)            121.9696         calculate D2E/DX2 analytically  !
 ! A44   A(1,24,29)            121.6872         calculate D2E/DX2 analytically  !
 ! A45   A(25,24,29)           116.3319         calculate D2E/DX2 analytically  !
 ! A46   A(24,25,26)           121.5884         calculate D2E/DX2 analytically  !
 ! A47   A(24,25,30)           118.8547         calculate D2E/DX2 analytically  !
 ! A48   A(26,25,30)           119.5568         calculate D2E/DX2 analytically  !
 ! A49   A(25,26,27)           120.9618         calculate D2E/DX2 analytically  !
 ! A50   A(25,26,31)           119.1255         calculate D2E/DX2 analytically  !
 ! A51   A(27,26,31)           119.9125         calculate D2E/DX2 analytically  !
 ! A52   A(26,27,28)           118.555          calculate D2E/DX2 analytically  !
 ! A53   A(26,27,32)           120.7668         calculate D2E/DX2 analytically  !
 ! A54   A(28,27,32)           120.6781         calculate D2E/DX2 analytically  !
 ! A55   A(27,28,29)           120.5684         calculate D2E/DX2 analytically  !
 ! A56   A(27,28,33)           120.1953         calculate D2E/DX2 analytically  !
 ! A57   A(29,28,33)           119.2361         calculate D2E/DX2 analytically  !
 ! A58   A(24,29,28)           121.9941         calculate D2E/DX2 analytically  !
 ! A59   A(24,29,34)           120.9223         calculate D2E/DX2 analytically  !
 ! A60   A(28,29,34)           117.081          calculate D2E/DX2 analytically  !
 ! D1    D(4,1,2,3)            175.6844         calculate D2E/DX2 analytically  !
 ! D2    D(4,1,2,35)            -5.6464         calculate D2E/DX2 analytically  !
 ! D3    D(24,1,2,3)            -3.8574         calculate D2E/DX2 analytically  !
 ! D4    D(24,1,2,35)          174.8118         calculate D2E/DX2 analytically  !
 ! D5    D(2,1,4,9)           -102.4774         calculate D2E/DX2 analytically  !
 ! D6    D(2,1,4,12)           158.0958         calculate D2E/DX2 analytically  !
 ! D7    D(2,1,4,13)            14.9096         calculate D2E/DX2 analytically  !
 ! D8    D(24,1,4,9)            77.085          calculate D2E/DX2 analytically  !
 ! D9    D(24,1,4,12)          -22.3418         calculate D2E/DX2 analytically  !
 ! D10   D(24,1,4,13)         -165.528          calculate D2E/DX2 analytically  !
 ! D11   D(2,1,24,25)          -15.7643         calculate D2E/DX2 analytically  !
 ! D12   D(2,1,24,29)          165.5065         calculate D2E/DX2 analytically  !
 ! D13   D(4,1,24,25)          164.6924         calculate D2E/DX2 analytically  !
 ! D14   D(4,1,24,29)          -14.0368         calculate D2E/DX2 analytically  !
 ! D15   D(1,4,9,5)           -160.2803         calculate D2E/DX2 analytically  !
 ! D16   D(1,4,9,10)            76.2641         calculate D2E/DX2 analytically  !
 ! D17   D(1,4,9,11)           -37.3887         calculate D2E/DX2 analytically  !
 ! D18   D(12,4,9,5)           -43.8415         calculate D2E/DX2 analytically  !
 ! D19   D(12,4,9,10)         -167.2971         calculate D2E/DX2 analytically  !
 ! D20   D(12,4,9,11)           79.0501         calculate D2E/DX2 analytically  !
 ! D21   D(13,4,9,5)            66.8486         calculate D2E/DX2 analytically  !
 ! D22   D(13,4,9,10)          -56.607          calculate D2E/DX2 analytically  !
 ! D23   D(13,4,9,11)         -170.2599         calculate D2E/DX2 analytically  !
 ! D24   D(1,4,13,14)          -65.3133         calculate D2E/DX2 analytically  !
 ! D25   D(1,4,13,18)          116.2967         calculate D2E/DX2 analytically  !
 ! D26   D(9,4,13,14)           56.4449         calculate D2E/DX2 analytically  !
 ! D27   D(9,4,13,18)         -121.9451         calculate D2E/DX2 analytically  !
 ! D28   D(12,4,13,14)         150.1493         calculate D2E/DX2 analytically  !
 ! D29   D(12,4,13,18)         -28.2407         calculate D2E/DX2 analytically  !
 ! D30   D(6,5,9,4)            179.0301         calculate D2E/DX2 analytically  !
 ! D31   D(6,5,9,10)           -60.5046         calculate D2E/DX2 analytically  !
 ! D32   D(6,5,9,11)            60.0163         calculate D2E/DX2 analytically  !
 ! D33   D(7,5,9,4)            -60.0822         calculate D2E/DX2 analytically  !
 ! D34   D(7,5,9,10)            60.3831         calculate D2E/DX2 analytically  !
 ! D35   D(7,5,9,11)          -179.096          calculate D2E/DX2 analytically  !
 ! D36   D(8,5,9,4)             58.3201         calculate D2E/DX2 analytically  !
 ! D37   D(8,5,9,10)           178.7854         calculate D2E/DX2 analytically  !
 ! D38   D(8,5,9,11)           -60.6937         calculate D2E/DX2 analytically  !
 ! D39   D(4,13,14,15)        -179.3972         calculate D2E/DX2 analytically  !
 ! D40   D(4,13,14,19)           0.4465         calculate D2E/DX2 analytically  !
 ! D41   D(18,13,14,15)         -1.023          calculate D2E/DX2 analytically  !
 ! D42   D(18,13,14,19)        178.8207         calculate D2E/DX2 analytically  !
 ! D43   D(4,13,18,17)        -179.8677         calculate D2E/DX2 analytically  !
 ! D44   D(4,13,18,23)          -0.1372         calculate D2E/DX2 analytically  !
 ! D45   D(14,13,18,17)          1.6509         calculate D2E/DX2 analytically  !
 ! D46   D(14,13,18,23)       -178.6185         calculate D2E/DX2 analytically  !
 ! D47   D(13,14,15,16)         -0.0906         calculate D2E/DX2 analytically  !
 ! D48   D(13,14,15,20)        179.8064         calculate D2E/DX2 analytically  !
 ! D49   D(19,14,15,16)       -179.9362         calculate D2E/DX2 analytically  !
 ! D50   D(19,14,15,20)         -0.0392         calculate D2E/DX2 analytically  !
 ! D51   D(14,15,16,17)          0.6022         calculate D2E/DX2 analytically  !
 ! D52   D(14,15,16,21)       -179.9912         calculate D2E/DX2 analytically  !
 ! D53   D(20,15,16,17)       -179.2942         calculate D2E/DX2 analytically  !
 ! D54   D(20,15,16,21)          0.1124         calculate D2E/DX2 analytically  !
 ! D55   D(15,16,17,18)          0.0191         calculate D2E/DX2 analytically  !
 ! D56   D(15,16,17,22)        179.3478         calculate D2E/DX2 analytically  !
 ! D57   D(21,16,17,18)       -179.3871         calculate D2E/DX2 analytically  !
 ! D58   D(21,16,17,22)         -0.0584         calculate D2E/DX2 analytically  !
 ! D59   D(16,17,18,13)         -1.1641         calculate D2E/DX2 analytically  !
 ! D60   D(16,17,18,23)        179.106          calculate D2E/DX2 analytically  !
 ! D61   D(22,17,18,13)        179.5037         calculate D2E/DX2 analytically  !
 ! D62   D(22,17,18,23)         -0.2261         calculate D2E/DX2 analytically  !
 ! D63   D(1,24,25,26)        -178.7216         calculate D2E/DX2 analytically  !
 ! D64   D(1,24,25,30)           1.3961         calculate D2E/DX2 analytically  !
 ! D65   D(29,24,25,26)          0.0719         calculate D2E/DX2 analytically  !
 ! D66   D(29,24,25,30)       -179.8104         calculate D2E/DX2 analytically  !
 ! D67   D(1,24,29,28)         178.7087         calculate D2E/DX2 analytically  !
 ! D68   D(1,24,29,34)          -0.6804         calculate D2E/DX2 analytically  !
 ! D69   D(25,24,29,28)         -0.0884         calculate D2E/DX2 analytically  !
 ! D70   D(25,24,29,34)       -179.4775         calculate D2E/DX2 analytically  !
 ! D71   D(24,25,26,27)         -0.1344         calculate D2E/DX2 analytically  !
 ! D72   D(24,25,26,31)        179.6908         calculate D2E/DX2 analytically  !
 ! D73   D(30,25,26,27)        179.747          calculate D2E/DX2 analytically  !
 ! D74   D(30,25,26,31)         -0.4277         calculate D2E/DX2 analytically  !
 ! D75   D(25,26,27,28)          0.2048         calculate D2E/DX2 analytically  !
 ! D76   D(25,26,27,32)       -179.8171         calculate D2E/DX2 analytically  !
 ! D77   D(31,26,27,28)       -179.6191         calculate D2E/DX2 analytically  !
 ! D78   D(31,26,27,32)          0.359          calculate D2E/DX2 analytically  !
 ! D79   D(26,27,28,29)         -0.2199         calculate D2E/DX2 analytically  !
 ! D80   D(26,27,28,33)        179.9586         calculate D2E/DX2 analytically  !
 ! D81   D(32,27,28,29)        179.8019         calculate D2E/DX2 analytically  !
 ! D82   D(32,27,28,33)         -0.0196         calculate D2E/DX2 analytically  !
 ! D83   D(27,28,29,24)          0.1671         calculate D2E/DX2 analytically  !
 ! D84   D(27,28,29,34)        179.5785         calculate D2E/DX2 analytically  !
 ! D85   D(33,28,29,24)        179.9903         calculate D2E/DX2 analytically  !
 ! D86   D(33,28,29,34)         -0.5983         calculate D2E/DX2 analytically  !
 --------------------------------------------------------------------------------
 Trust Radius=5.00D-02 FncErr=1.00D-07 GrdErr=1.00D-06 EigMax=2.50D+02 EigMin=1.00D-04
 Number of steps in this run=     70 maximum allowed number of steps=    210.
 Search for a saddle point of order  1.
 GradGradGradGradGradGradGradGradGradGradGradGradGradGradGradGradGradGrad

                          Input orientation:                          
 ---------------------------------------------------------------------
 Center     Atomic      Atomic             Coordinates (Angstroms)
 Number     Number       Type             X           Y           Z
 ---------------------------------------------------------------------
      1          6           0        0.600860   -0.638500   -0.127290
      2          6           0        0.225470   -1.930370   -0.603980
      3          8           0        0.956070   -2.860740   -0.955340
      4          6           0       -0.409210    0.307210    0.132930
      5          6           0       -1.137630    2.873540   -1.015410
      6          1           0       -1.145280    3.579430   -1.846700
      7          1           0       -2.163590    2.660070   -0.718690
      8          1           0       -0.618760    3.327810   -0.171760
      9          7           0       -0.476230    1.620200   -1.364190
     10          1           0       -0.939010    1.152750   -2.133560
     11          1           0        0.489550    1.762450   -1.634540
     12          1           0       -0.126040    1.098900    0.818660
     13          6           0       -1.862710    0.007260    0.259100
     14          6           0       -2.655470   -0.462890   -0.786460
     15          6           0       -4.005630   -0.707880   -0.595400
     16          6           0       -4.587100   -0.488870    0.645450
     17          6           0       -3.811100   -0.011110    1.690560
     18          6           0       -2.462960    0.245530    1.493510
     19          1           0       -2.222440   -0.639590   -1.763090
     20          1           0       -4.605240   -1.069810   -1.420660
     21          1           0       -5.642040   -0.680840    0.793320
     22          1           0       -4.256420    0.173350    2.659770
     23          1           0       -1.865400    0.632510    2.310350
     24          6           0        2.008670   -0.243750    0.097130
     25          6           0        3.043690   -1.190370    0.171310
     26          6           0        4.355960   -0.813900    0.407780
     27          6           0        4.696200    0.520570    0.577980
     28          6           0        3.692620    1.473800    0.510820
     29          6           0        2.378930    1.099090    0.273950
     30          1           0        2.805280   -2.233720    0.038310
     31          1           0        5.122310   -1.578160    0.462170
     32          1           0        5.723020    0.811450    0.759670
     33          1           0        3.928320    2.523140    0.640520
     34          1           0        1.640020    1.888700    0.239760
     35          1           0       -0.862760   -2.100040   -0.633300
 ---------------------------------------------------------------------
                    Distance matrix (angstroms):
                    1          2          3          4          5
     1  C    0.000000
     2  C    1.427263   0.000000
     3  O    2.397956   1.234025   0.000000
     4  C    1.407950   2.439799   3.617213   0.000000
     5  C    4.018150   5.010476   6.104847   2.904364   0.000000
     6  H    4.878146   5.812160   6.832714   3.894632   1.090588
     7  H    4.344249   5.176186   6.345678   3.055987   1.089131
     8  H    4.149827   5.343032   6.433680   3.043152   1.089648
     9  N    2.791374   3.698222   4.722019   1.992436   1.459438
    10  H    3.099177   3.633353   4.592127   2.476409   2.061754
    11  H    2.837032   3.843008   4.696045   2.459562   2.065323
    12  H    2.107549   3.365106   4.471777   1.084981   2.745264
    13  C    2.575943   2.976544   4.200692   1.489480   3.219577
    14  C    3.327015   3.238304   4.338367   2.546373   3.672604
    15  C    4.630733   4.404176   5.420593   3.807244   4.607429
    16  C    5.247327   5.176855   6.238191   4.283828   5.095400
    17  C    4.812857   5.024179   6.151999   3.755049   4.773984
    18  C    3.577079   4.044955   5.228341   2.464320   3.867508
    19  H    3.262954   3.000319   3.960921   2.789108   3.752056
    20  H    5.381664   4.974263   5.861068   4.681505   5.266741
    21  H    6.310556   6.159663   7.165531   5.366085   6.016214
    22  H    5.658619   5.930012   7.031698   4.604765   5.524928
    23  H    3.693236   4.408334   5.552317   2.639596   4.075849
    24  C    1.479230   2.552654   3.010697   2.480117   4.566667
    25  C    2.522130   3.015135   2.901316   3.763873   5.950387
    26  C    3.797083   4.396716   4.196058   4.902986   6.767733
    27  C    4.314239   5.233695   5.270000   5.129211   6.489140
    28  C    3.798418   4.985206   5.331657   4.281208   5.255470
    29  C    2.518282   3.819133   4.383599   2.901842   4.144553
    30  H    2.726099   2.675813   2.190907   4.098564   6.537658
    31  H    4.655527   5.023920   4.583874   5.853267   7.822258
    32  H    5.396812   6.292867   6.257000   6.184764   7.380491
    33  H    4.653761   5.923988   6.353519   4.897158   5.341230
    34  H    2.757049   4.159104   4.945021   2.590727   3.203233
    35  H    2.129396   1.101768   1.997628   2.566645   4.995804
                    6          7          8          9         10
     6  H    0.000000
     7  H    1.776115   0.000000
     8  H    1.773685   1.769607   0.000000
     9  N    2.125800   2.084510   2.087615   0.000000
    10  H    2.452267   2.402804   2.946541   1.012228   0.000000
    11  H    2.453385   2.946804   2.412142   1.012944   1.631422
    12  H    3.781008   2.992041   2.488322   2.271392   3.062584
    13  C    4.208265   2.843238   3.571989   2.675626   2.808948
    14  C    4.443550   3.162186   4.346890   3.069548   2.714996
    15  C    5.303620   3.840755   5.285561   4.297401   3.902824
    16  C    5.882857   4.201202   5.566202   5.038460   4.870973
    17  C    5.701823   3.956511   4.980729   4.807705   4.922130
    18  C    4.899814   3.288382   3.959122   3.742093   4.037463
    19  H    4.355157   3.461501   4.565565   2.883578   2.235380
    20  H    5.811047   4.512917   6.065545   4.928292   4.346176
    21  H    6.733532   5.054450   6.498769   6.052704   5.834995
    22  H    6.448941   4.688039   5.585763   5.707492   5.911044
    23  H    5.146258   3.657185   3.870352   4.050626   4.569156
    24  C    5.323775   5.148348   4.442041   3.432855   3.951583
    25  C    6.661143   6.537106   5.826250   4.758876   5.163772
    26  C    7.392406   7.472746   6.499036   5.693398   6.193773
    27  C    7.025567   7.301749   6.057351   5.633404   6.285514
    28  C    5.779001   6.100338   4.742496   4.573446   5.343016
    29  C    4.803051   4.904741   3.761914   3.332716   4.099721
    30  H    7.276874   7.015119   6.534432   5.252429   5.495899
    31  H    8.438857   8.511249   7.578278   6.701399   7.136896
    32  H    7.850377   8.234170   6.886059   6.602693   7.271170
    33  H    5.748341   6.243202   4.688628   4.922827   5.767529
    34  H    3.869080   3.997635   2.709700   2.668944   3.581294
    35  H    5.814511   4.935392   5.452899   3.811009   3.582909
                   11         12         13         14         15
    11  H    0.000000
    12  H    2.614850   0.000000
    13  C    3.492806   2.126219   0.000000
    14  C    3.944937   3.378404   1.393810   0.000000
    15  C    5.233449   4.507243   2.415306   1.385444   0.000000
    16  C    6.003263   4.738362   2.796017   2.404628   1.387725
    17  C    5.718164   3.946137   2.417776   2.770418   2.397695
    18  C    4.561037   2.577762   1.393141   2.395242   2.766291
    19  H    3.625081   3.752689   2.153386   1.082841   2.132588
    20  H    5.833038   5.457205   3.391629   2.138262   1.082395
    21  H    7.032821   5.796065   3.878429   3.385677   2.146418
    22  H    6.594738   4.615882   3.394208   3.852836   3.381655
    23  H    4.731248   2.338382   2.144428   3.378512   3.849755
    24  C    3.054709   2.623033   3.882889   4.752153   6.071805
    25  C    4.301613   3.963207   5.051216   5.824687   7.107289
    26  C    5.075212   4.890394   6.274414   7.121065   8.422220
    27  C    4.912577   4.862756   6.586689   7.541614   8.866101
    28  C    3.865947   3.849348   5.751156   6.762540   8.077531
    29  C    2.766250   2.563510   4.379934   5.376749   6.692049
    30  H    4.912271   4.506433   5.182747   5.799644   7.008443
    31  H    6.084269   5.902450   7.165563   7.955926   9.230121
    32  H    5.833168   5.856416   7.644645   8.614729   9.939377
    33  H    4.192814   4.300933   6.325438   7.368781   8.655319
    34  H    2.202844   2.019375   3.976092   5.003433   6.270015
    35  H    4.213081   3.589451   2.497397   2.432597   3.437612
                   16         17         18         19         20
    16  C    0.000000
    17  C    1.386609   0.000000
    18  C    2.402191   1.386425   0.000000
    19  H    3.378668   3.853119   3.383302   0.000000
    20  H    2.146306   3.381005   3.848619   2.445421   0.000000
    21  H    1.082412   2.146141   3.384520   4.269730   2.475472
    22  H    2.146013   1.082453   2.140531   4.935548   4.279840
    23  H    3.381869   2.141059   1.083540   4.282363   4.932043
    24  C    6.623060   6.038449   4.710069   4.638901   6.835925
    25  C    7.677621   7.119475   5.842364   5.637144   7.813772
    26  C    8.952120   8.306074   6.985619   6.929532   9.149415
    27  C    9.338264   8.596201   7.222701   7.395550   9.645758
    28  C    8.510227   7.739674   6.353384   6.680196   8.891291
    29  C    7.154383   6.446379   5.065549   5.324016   7.506961
    30  H    7.619738   7.172615   6.001553   5.573532   7.641930
    31  H    9.772041   9.152617   7.869297   7.731626   9.921124
    32  H   10.392423   9.614708   8.238268   8.461688  10.722217
    33  H    9.032420   8.211189   6.838389   7.322025   9.485747
    34  H    6.677907   5.952210   4.594164   5.032122   7.107253
    35  H    4.254619   4.296122   3.547627   2.293048   3.960741
                   21         22         23         24         25
    21  H    0.000000
    22  H    2.476534   0.000000
    23  H    4.276597   2.459654   0.000000
    24  C    7.694744   6.781773   4.546932   0.000000
    25  C    8.722868   7.832226   5.656638   1.404585   0.000000
    26  C   10.006316   8.956518   6.664623   2.435435   1.385532
    27  C   10.410041   9.198033   6.787358   2.835175   2.413190
    28  C    9.584266   8.336450   5.902344   2.440657   2.763002
    29  C    8.232488   7.111751   4.730640   1.404129   2.386225
    30  H    8.621989   7.907822   5.932343   2.144301   1.078475
    31  H   10.806761   9.790700   7.558500   3.407148   2.134395
    32  H   11.462663  10.178741   7.747306   3.917755   3.395918
    33  H   10.093593   8.751506   6.319019   3.411159   3.846152
    34  H    7.741922   6.600521   4.260672   2.168776   3.384619
    35  H    5.185643   5.246860   4.139709   3.496348   4.090874
                   26         27         28         29         30
    26  C    0.000000
    27  C    1.387639   0.000000
    28  C    2.384158   1.385760   0.000000
    29  C    2.754286   2.407667   1.386469   0.000000
    30  H    2.134714   3.384219   3.841399   3.368223   0.000000
    31  H    1.083672   2.144679   3.370585   3.837868   2.445004
    32  H    2.152775   1.082581   2.150153   3.391401   4.278624
    33  H    3.372370   2.145656   1.083278   2.136095   4.924591
    34  H    3.835180   3.365473   2.111583   1.081962   4.288678
    35  H    5.474764   6.263931   5.901934   4.643930   3.731414
                   31         32         33         34         35
    31  H    0.000000
    32  H    2.481853   0.000000
    33  H    4.275287   2.482947   0.000000
    34  H    4.918834   4.254605   2.408203   0.000000
    35  H    6.106838   7.334142   6.778706   4.789174   0.000000
 Stoichiometry    C16H17NO
 Framework group  C1[X(C16H17NO)]
 Deg. of freedom    99
 Full point group                 C1      NOp   1
 Largest Abelian subgroup         C1      NOp   1
 Largest concise Abelian subgroup C1      NOp   1
                         Standard orientation:                         
 ---------------------------------------------------------------------
 Center     Atomic      Atomic             Coordinates (Angstroms)
 Number     Number       Type             X           Y           Z
 ---------------------------------------------------------------------
      1          6           0        0.600860   -0.638500   -0.127290
      2          6           0        0.225470   -1.930370   -0.603980
      3          8           0        0.956070   -2.860740   -0.955340
      4          6           0       -0.409210    0.307210    0.132930
      5          6           0       -1.137630    2.873540   -1.015410
      6          1           0       -1.145280    3.579430   -1.846700
      7          1           0       -2.163590    2.660070   -0.718690
      8          1           0       -0.618760    3.327810   -0.171760
      9          7           0       -0.476230    1.620200   -1.364190
     10          1           0       -0.939010    1.152750   -2.133560
     11          1           0        0.489550    1.762450   -1.634540
     12          1           0       -0.126040    1.098900    0.818660
     13          6           0       -1.862710    0.007260    0.259100
     14          6           0       -2.655470   -0.462891   -0.786460
     15          6           0       -4.005630   -0.707881   -0.595400
     16          6           0       -4.587100   -0.488871    0.645450
     17          6           0       -3.811100   -0.011111    1.690560
     18          6           0       -2.462960    0.245529    1.493510
     19          1           0       -2.222440   -0.639590   -1.763090
     20          1           0       -4.605240   -1.069811   -1.420660
     21          1           0       -5.642040   -0.680841    0.793320
     22          1           0       -4.256420    0.173349    2.659770
     23          1           0       -1.865400    0.632510    2.310350
     24          6           0        2.008670   -0.243750    0.097130
     25          6           0        3.043690   -1.190370    0.171310
     26          6           0        4.355960   -0.813900    0.407780
     27          6           0        4.696200    0.520570    0.577980
     28          6           0        3.692620    1.473800    0.510820
     29          6           0        2.378930    1.099090    0.273950
     30          1           0        2.805280   -2.233720    0.038310
     31          1           0        5.122310   -1.578160    0.462170
     32          1           0        5.723020    0.811450    0.759670
     33          1           0        3.928320    2.523140    0.640520
     34          1           0        1.640020    1.888700    0.239760
     35          1           0       -0.862760   -2.100040   -0.633300
 ---------------------------------------------------------------------
 Rotational constants (GHZ):           0.7904043           0.2412495           0.2126125
 Standard basis: def2TZVP (5D, 7F)
 There are   750 symmetry adapted cartesian basis functions of A   symmetry.
 There are   660 symmetry adapted basis functions of A   symmetry.
   660 basis functions,  1054 primitive gaussians,   750 cartesian basis functions
    64 alpha electrons       64 beta electrons
       nuclear repulsion energy      1233.3886253951 Hartrees.
 NAtoms=   35 NActive=   35 NUniq=   35 SFac= 1.00D+00 NAtFMM=   60 NAOKFM=F Big=F
 Integral buffers will be    131072 words long.
 Raffenetti 2 integral format.
 Two-electron integral symmetry is turned on.
 Nuclear repulsion after empirical dispersion term =     1233.3618188693 Hartrees.
 Force inversion solution in PCM.
 ------------------------------------------------------------------------------
 Polarizable Continuum Model (PCM)
 =================================
 Model                : PCM.
 Atomic radii         : UFF (Universal Force Field).
 Polarization charges : Total charges.
 Charge compensation  : None.
 Solution method      : Matrix inversion.
 Cavity type          : Scaled VdW (van der Waals Surface) (Alpha=1.100).
 Cavity algorithm     : GePol (No added spheres)
                        Default sphere list used, NSphG=   35.
                        Lebedev-Laikov grids with approx.  5.0 points / Ang**2.
                        Smoothing algorithm: York/Karplus (Gamma=1.0000).
                        Polarization charges: spherical gaussians, with
                                              point-specific exponents (IZeta= 3).
                        Self-potential: point-specific (ISelfS= 7).
                        Self-field    : sphere-specific E.n sum rule (ISelfD= 2).
 1st derivatives      : Analytical E(r).r(x)/FMM algorithm (CHGder, D1EAlg=3).
                        Cavity 1st derivative terms included.
 2nd derivatives      : Analytical E(r).r(xy)/FMM algorithm (CHGder, D2EAlg=3).
                        Cavity 2nd derivative terms included.
 Solvent              : Water, Eps=  78.355300 Eps(inf)=   1.777849
 ------------------------------------------------------------------------------
 One-electron integrals computed using PRISM.
   1 Symmetry operations used in ECPInt.
 ECPInt:  NShTT=   35511 NPrTT=  107400 LenC2=   31858 LenP2D=   69890.
 LDataN:  DoStor=T MaxTD1= 6 Len=  172
 NBasis=   660 RedAO= T EigKep=  7.15D-06  NBF=   660
 NBsUse=   660 1.00D-06 EigRej= -1.00D+00 NBFU=   660
 ExpMin= 9.52D-02 ExpMax= 2.70D+04 ExpMxC= 9.22D+02 IAcc=3 IRadAn=         5 AccDes= 0.00D+00
 Harris functional with IExCor= 4639 and IRadAn=       5 diagonalized for initial guess.
 HarFok:  IExCor= 4639 AccDes= 0.00D+00 IRadAn=         5 IDoV= 1 UseB2=F ITyADJ=14
 ICtDFT=  3500011 ScaDFX=  1.000000  1.000000  1.000000  1.000000
 FoFCou: FMM=F IPFlag=           0 FMFlag=      100000 FMFlg1=           0
         NFxFlg=           0 DoJE=T BraDBF=F KetDBF=T FulRan=T
         wScrn=  0.000000 ICntrl=       500 IOpCl=  0 I1Cent=   200000004 NGrid=           0
         NMat0=    1 NMatS0=      1 NMatT0=    0 NMatD0=    1 NMtDS0=    0 NMtDT0=    0
 Petite list used in FoFCou.
 Requested convergence on RMS density matrix=1.00D-08 within 128 cycles.
 Requested convergence on MAX density matrix=1.00D-06.
 Requested convergence on             energy=1.00D-06.
 No special actions if energy rises.
 Inv3:  Mode=1 IEnd=    19339563.
 Iteration    1 A*A^-1 deviation from unit magnitude is 6.88D-15 for   2525.
 Iteration    1 A*A^-1 deviation from orthogonality  is 8.84D-15 for   2510   2476.
 Iteration    1 A^-1*A deviation from unit magnitude is 7.33D-15 for   2525.
 Iteration    1 A^-1*A deviation from orthogonality  is 2.48D-15 for   2511   1273.
 Error on total polarization charges =  0.01717
 SCF Done:  E(RwB97XD) =  -749.893587740     A.U. after   15 cycles
            NFock= 15  Conv=0.36D-08     -V/T= 2.0049
 DoSCS=F DFT=T ScalE2(SS,OS)=  1.000000  1.000000
 Range of M.O.s used for correlation:     1   660
 NBasis=   660 NAE=    64 NBE=    64 NFC=     0 NFV=     0
 NROrb=    660 NOA=    64 NOB=    64 NVA=   596 NVB=   596

 **** Warning!!: The largest alpha MO coefficient is  0.66060655D+02

   1 Symmetry operations used in ECPInt.
 ECPInt:  NShTT=   35511 NPrTT=  107400 LenC2=   31858 LenP2D=   69890.
 LDataN:  DoStor=T MaxTD1= 7 Len=  274
 Number of processors reduced to  14 by ecpmxn.
 Symmetrizing basis deriv contribution to polar:
 IMax=3 JMax=2 DiffMx= 0.00D+00
 G2DrvN: will do    36 centers at a time, making    1 passes.
 Calling FoFCou, ICntrl=  3107 FMM=F I1Cent=   0 AccDes= 0.00D+00.
 NEqPCM:  Using equilibrium solvation (IEInf=0, Eps=  78.3553, EpsInf=   1.7778)
 G2PCM: DoFxE=T DoFxN=T DoGrad=T DoDP/DQ/DG/TGxP=FFFF NFrqRd=   0 IEInf=0 SqF1=F DoCFld=F IF1Alg=4.
 End of G2Drv F.D. properties file   721 does not exist.
 End of G2Drv F.D. properties file   722 does not exist.
 End of G2Drv F.D. properties file   788 does not exist.
          IDoAtm=11111111111111111111111111111111111
 NEqPCM:  Using equilibrium solvation (IEInf=0, Eps=  78.3553, EpsInf=   1.7778)
          Differentiating once with respect to nuclear coordinates.
 CalDSu exits because no D1Ps are significant.
          There are   108 degrees of freedom in the 1st order CPHF.  IDoFFX=6 NUNeed=     0.
    102 vectors produced by pass  0 Test12= 3.81D-14 1.00D-09 XBig12= 9.20D-02 8.77D-02.
 AX will form   102 AO Fock derivatives at one time.
    102 vectors produced by pass  1 Test12= 3.81D-14 1.00D-09 XBig12= 1.44D-02 2.42D-02.
    102 vectors produced by pass  2 Test12= 3.81D-14 1.00D-09 XBig12= 4.91D-04 3.76D-03.
    102 vectors produced by pass  3 Test12= 3.81D-14 1.00D-09 XBig12= 7.30D-06 3.15D-04.
    102 vectors produced by pass  4 Test12= 3.81D-14 1.00D-09 XBig12= 7.62D-08 3.36D-05.
    102 vectors produced by pass  5 Test12= 3.81D-14 1.00D-09 XBig12= 6.49D-10 2.90D-06.
    102 vectors produced by pass  6 Test12= 3.81D-14 1.00D-09 XBig12= 4.68D-12 2.23D-07.
     49 vectors produced by pass  7 Test12= 3.81D-14 1.00D-09 XBig12= 3.34D-14 1.55D-08.
     16 vectors produced by pass  8 Test12= 3.81D-14 1.00D-09 XBig12= 7.03D-15 7.17D-09.
     15 vectors produced by pass  9 Test12= 3.81D-14 1.00D-09 XBig12= 1.35D-14 1.59D-08.
      3 vectors produced by pass 10 Test12= 3.81D-14 1.00D-09 XBig12= 1.90D-15 2.87D-09.
      2 vectors produced by pass 11 Test12= 3.81D-14 1.00D-09 XBig12= 9.17D-16 2.00D-09.
 InvSVY:  IOpt=1 It=  1 EMax= 3.33D-16
 Solved reduced A of dimension   799 with   108 vectors.
 End of Minotr F.D. properties file   721 does not exist.
 End of Minotr F.D. properties file   722 does not exist.
 End of Minotr F.D. properties file   788 does not exist.

 **********************************************************************

            Population analysis using the SCF density.

 **********************************************************************

 Orbital symmetries:
       Occupied  (A) (A) (A) (A) (A) (A) (A) (A) (A) (A) (A) (A)
                 (A) (A) (A) (A) (A) (A) (A) (A) (A) (A) (A) (A)
                 (A) (A) (A) (A) (A) (A) (A) (A) (A) (A) (A) (A)
                 (A) (A) (A) (A) (A) (A) (A) (A) (A) (A) (A) (A)
                 (A) (A) (A) (A) (A) (A) (A) (A) (A) (A) (A) (A)
                 (A) (A) (A) (A)
       Virtual   (A) (A) (A) (A) (A) (A) (A) (A) (A) (A) (A) (A)
                 (A) (A) (A) (A) (A) (A) (A) (A) (A) (A) (A) (A)
                 (A) (A) (A) (A) (A) (A) (A) (A) (A) (A) (A) (A)
                 (A) (A) (A) (A) (A) (A) (A) (A) (A) (A) (A) (A)
                 (A) (A) (A) (A) (A) (A) (A) (A) (A) (A) (A) (A)
                 (A) (A) (A) (A) (A) (A) (A) (A) (A) (A) (A) (A)
                 (A) (A) (A) (A) (A) (A) (A) (A) (A) (A) (A) (A)
                 (A) (A) (A) (A) (A) (A) (A) (A) (A) (A) (A) (A)
                 (A) (A) (A) (A) (A) (A) (A) (A) (A) (A) (A) (A)
                 (A) (A) (A) (A) (A) (A) (A) (A) (A) (A) (A) (A)
                 (A) (A) (A) (A) (A) (A) (A) (A) (A) (A) (A) (A)
                 (A) (A) (A) (A) (A) (A) (A) (A) (A) (A) (A) (A)
                 (A) (A) (A) (A) (A) (A) (A) (A) (A) (A) (A) (A)
                 (A) (A) (A) (A) (A) (A) (A) (A) (A) (A) (A) (A)
                 (A) (A) (A) (A) (A) (A) (A) (A) (A) (A) (A) (A)
                 (A) (A) (A) (A) (A) (A) (A) (A) (A) (A) (A) (A)
                 (A) (A) (A) (A) (A) (A) (A) (A) (A) (A) (A) (A)
                 (A) (A) (A) (A) (A) (A) (A) (A) (A) (A) (A) (A)
                 (A) (A) (A) (A) (A) (A) (A) (A) (A) (A) (A) (A)
                 (A) (A) (A) (A) (A) (A) (A) (A) (A) (A) (A) (A)
                 (A) (A) (A) (A) (A) (A) (A) (A) (A) (A) (A) (A)
                 (A) (A) (A) (A) (A) (A) (A) (A) (A) (A) (A) (A)
                 (A) (A) (A) (A) (A) (A) (A) (A) (A) (A) (A) (A)
                 (A) (A) (A) (A) (A) (A) (A) (A) (A) (A) (A) (A)
                 (A) (A) (A) (A) (A) (A) (A) (A) (A) (A) (A) (A)
                 (A) (A) (A) (A) (A) (A) (A) (A) (A) (A) (A) (A)
                 (A) (A) (A) (A) (A) (A) (A) (A) (A) (A) (A) (A)
                 (A) (A) (A) (A) (A) (A) (A) (A) (A) (A) (A) (A)
                 (A) (A) (A) (A) (A) (A) (A) (A) (A) (A) (A) (A)
                 (A) (A) (A) (A) (A) (A) (A) (A) (A) (A) (A) (A)
                 (A) (A) (A) (A) (A) (A) (A) (A) (A) (A) (A) (A)
                 (A) (A) (A) (A) (A) (A) (A) (A) (A) (A) (A) (A)
                 (A) (A) (A) (A) (A) (A) (A) (A) (A) (A) (A) (A)
                 (A) (A) (A) (A) (A) (A) (A) (A) (A) (A) (A) (A)
                 (A) (A) (A) (A) (A) (A) (A) (A) (A) (A) (A) (A)
                 (A) (A) (A) (A) (A) (A) (A) (A) (A) (A) (A) (A)
                 (A) (A) (A) (A) (A) (A) (A) (A) (A) (A) (A) (A)
                 (A) (A) (A) (A) (A) (A) (A) (A) (A) (A) (A) (A)
                 (A) (A) (A) (A) (A) (A) (A) (A) (A) (A) (A) (A)
                 (A) (A) (A) (A) (A) (A) (A) (A) (A) (A) (A) (A)
                 (A) (A) (A) (A) (A) (A) (A) (A) (A) (A) (A) (A)
                 (A) (A) (A) (A) (A) (A) (A) (A) (A) (A) (A) (A)
                 (A) (A) (A) (A) (A) (A) (A) (A) (A) (A) (A) (A)
                 (A) (A) (A) (A) (A) (A) (A) (A) (A) (A) (A) (A)
                 (A) (A) (A) (A) (A) (A) (A) (A) (A) (A) (A) (A)
                 (A) (A) (A) (A) (A) (A) (A) (A) (A) (A) (A) (A)
                 (A) (A) (A) (A) (A) (A) (A) (A) (A) (A) (A) (A)
                 (A) (A) (A) (A) (A) (A) (A) (A) (A) (A) (A) (A)
                 (A) (A) (A) (A) (A) (A) (A) (A) (A) (A) (A) (A)
                 (A) (A) (A) (A) (A) (A) (A) (A)
 The electronic state is 1-A.
 Alpha  occ. eigenvalues --  -19.20904 -14.47869 -10.34869 -10.34351 -10.31816
 Alpha  occ. eigenvalues --  -10.31154 -10.30019 -10.29866 -10.29730 -10.29568
 Alpha  occ. eigenvalues --  -10.29518 -10.29452 -10.28523 -10.28363 -10.28317
 Alpha  occ. eigenvalues --  -10.28039 -10.27516 -10.27215  -1.11066  -1.03501
 Alpha  occ. eigenvalues --   -0.97773  -0.96125  -0.91417  -0.86742  -0.85851
 Alpha  occ. eigenvalues --   -0.84367  -0.82219  -0.78817  -0.75850  -0.71591
 Alpha  occ. eigenvalues --   -0.70621  -0.69687  -0.68177  -0.64523  -0.62771
 Alpha  occ. eigenvalues --   -0.61001  -0.59006  -0.57570  -0.56412  -0.56159
 Alpha  occ. eigenvalues --   -0.54734  -0.54259  -0.53011  -0.52205  -0.51592
 Alpha  occ. eigenvalues --   -0.51371  -0.49858  -0.48863  -0.48338  -0.47932
 Alpha  occ. eigenvalues --   -0.47677  -0.46814  -0.45329  -0.44446  -0.43529
 Alpha  occ. eigenvalues --   -0.42668  -0.42290  -0.41553  -0.35182  -0.34632
 Alpha  occ. eigenvalues --   -0.34313  -0.33200  -0.31227  -0.26519
 Alpha virt. eigenvalues --    0.01722   0.04599   0.05007   0.05803   0.06844
 Alpha virt. eigenvalues --    0.10292   0.12548   0.13448   0.14074   0.14564
 Alpha virt. eigenvalues --    0.15517   0.16136   0.16556   0.16945   0.17468
 Alpha virt. eigenvalues --    0.18169   0.18640   0.19065   0.19542   0.20026
 Alpha virt. eigenvalues --    0.21214   0.21375   0.22282   0.22667   0.23552
 Alpha virt. eigenvalues --    0.24451   0.24874   0.25210   0.25276   0.26430
 Alpha virt. eigenvalues --    0.26785   0.27737   0.28299   0.28800   0.29421
 Alpha virt. eigenvalues --    0.29956   0.30478   0.30716   0.30959   0.31848
 Alpha virt. eigenvalues --    0.31914   0.32325   0.32539   0.32955   0.33273
 Alpha virt. eigenvalues --    0.34319   0.35033   0.35458   0.35617   0.36539
 Alpha virt. eigenvalues --    0.37299   0.38102   0.38871   0.39214   0.39372
 Alpha virt. eigenvalues --    0.40053   0.41179   0.41882   0.42225   0.42574
 Alpha virt. eigenvalues --    0.42837   0.43660   0.44165   0.44590   0.45033
 Alpha virt. eigenvalues --    0.45480   0.45569   0.46996   0.47419   0.47892
 Alpha virt. eigenvalues --    0.48145   0.48693   0.48895   0.49556   0.50058
 Alpha virt. eigenvalues --    0.50394   0.50815   0.51154   0.51728   0.52085
 Alpha virt. eigenvalues --    0.52153   0.52903   0.53185   0.53743   0.54247
 Alpha virt. eigenvalues --    0.54435   0.54541   0.56071   0.56358   0.56679
 Alpha virt. eigenvalues --    0.57030   0.57422   0.58006   0.58432   0.58829
 Alpha virt. eigenvalues --    0.59623   0.60562   0.60739   0.62321   0.62971
 Alpha virt. eigenvalues --    0.63546   0.63682   0.65444   0.66151   0.66278
 Alpha virt. eigenvalues --    0.66936   0.68321   0.69812   0.70315   0.70769
 Alpha virt. eigenvalues --    0.71010   0.72345   0.74019   0.74122   0.75402
 Alpha virt. eigenvalues --    0.75626   0.75921   0.76741   0.77439   0.77788
 Alpha virt. eigenvalues --    0.78601   0.79531   0.79700   0.81231   0.81496
 Alpha virt. eigenvalues --    0.81991   0.82308   0.82712   0.84064   0.84437
 Alpha virt. eigenvalues --    0.85313   0.86589   0.86837   0.87873   0.88501
 Alpha virt. eigenvalues --    0.89650   0.90337   0.90861   0.91431   0.92880
 Alpha virt. eigenvalues --    0.93273   0.93728   0.94871   0.96105   0.96671
 Alpha virt. eigenvalues --    0.96720   0.97448   0.98263   0.98529   0.99150
 Alpha virt. eigenvalues --    1.00203   1.01103   1.01831   1.02412   1.05806
 Alpha virt. eigenvalues --    1.06425   1.07172   1.07762   1.08976   1.10053
 Alpha virt. eigenvalues --    1.10462   1.11729   1.11884   1.12084   1.14219
 Alpha virt. eigenvalues --    1.15133   1.16040   1.17264   1.18270   1.19531
 Alpha virt. eigenvalues --    1.22214   1.22284   1.23419   1.24516   1.24932
 Alpha virt. eigenvalues --    1.26284   1.28198   1.29422   1.29778   1.30319
 Alpha virt. eigenvalues --    1.30830   1.32016   1.32659   1.32889   1.33299
 Alpha virt. eigenvalues --    1.33973   1.34895   1.35779   1.36215   1.37218
 Alpha virt. eigenvalues --    1.38144   1.38816   1.39281   1.40860   1.42149
 Alpha virt. eigenvalues --    1.43747   1.44373   1.47103   1.47532   1.49019
 Alpha virt. eigenvalues --    1.49755   1.50353   1.50902   1.51639   1.52560
 Alpha virt. eigenvalues --    1.53191   1.54212   1.54535   1.55365   1.55911
 Alpha virt. eigenvalues --    1.57451   1.57570   1.58418   1.58895   1.59795
 Alpha virt. eigenvalues --    1.60166   1.60774   1.61910   1.63261   1.63633
 Alpha virt. eigenvalues --    1.64358   1.65195   1.65806   1.66716   1.68073
 Alpha virt. eigenvalues --    1.69150   1.69874   1.70458   1.71510   1.71858
 Alpha virt. eigenvalues --    1.72534   1.74255   1.74880   1.75071   1.75626
 Alpha virt. eigenvalues --    1.76905   1.77068   1.78196   1.78490   1.78865
 Alpha virt. eigenvalues --    1.79793   1.80038   1.81026   1.81739   1.82422
 Alpha virt. eigenvalues --    1.83034   1.83618   1.85959   1.86205   1.88105
 Alpha virt. eigenvalues --    1.89342   1.89949   1.91695   1.93908   1.94528
 Alpha virt. eigenvalues --    1.95244   1.96324   1.98565   1.99075   2.00726
 Alpha virt. eigenvalues --    2.01299   2.02355   2.03192   2.03726   2.04999
 Alpha virt. eigenvalues --    2.06402   2.06849   2.08197   2.08959   2.11837
 Alpha virt. eigenvalues --    2.12232   2.13373   2.13779   2.14362   2.15218
 Alpha virt. eigenvalues --    2.16414   2.17197   2.18502   2.18880   2.19632
 Alpha virt. eigenvalues --    2.20751   2.21031   2.22831   2.23788   2.24580
 Alpha virt. eigenvalues --    2.25440   2.26689   2.27465   2.29584   2.30932
 Alpha virt. eigenvalues --    2.32473   2.33223   2.34443   2.34721   2.37073
 Alpha virt. eigenvalues --    2.39013   2.39476   2.41759   2.42532   2.43105
 Alpha virt. eigenvalues --    2.43784   2.47499   2.48250   2.49001   2.49771
 Alpha virt. eigenvalues --    2.50739   2.51973   2.54141   2.56718   2.56979
 Alpha virt. eigenvalues --    2.58626   2.59105   2.59402   2.60196   2.61843
 Alpha virt. eigenvalues --    2.62922   2.63164   2.64440   2.65106   2.66384
 Alpha virt. eigenvalues --    2.66682   2.68692   2.69219   2.70063   2.70889
 Alpha virt. eigenvalues --    2.72033   2.72324   2.73028   2.73235   2.73811
 Alpha virt. eigenvalues --    2.74860   2.75315   2.75860   2.76512   2.76965
 Alpha virt. eigenvalues --    2.77527   2.78542   2.79029   2.79597   2.80702
 Alpha virt. eigenvalues --    2.81743   2.82247   2.82577   2.82831   2.84204
 Alpha virt. eigenvalues --    2.84927   2.85252   2.85325   2.85913   2.86787
 Alpha virt. eigenvalues --    2.87303   2.87966   2.88718   2.89494   2.90812
 Alpha virt. eigenvalues --    2.91680   2.91734   2.93164   2.93232   2.93465
 Alpha virt. eigenvalues --    2.94308   2.95210   2.95352   2.96657   2.97138
 Alpha virt. eigenvalues --    2.98082   2.98480   2.99070   3.00722   3.02382
 Alpha virt. eigenvalues --    3.02791   3.04297   3.04834   3.05889   3.07812
 Alpha virt. eigenvalues --    3.08168   3.09070   3.10284   3.10807   3.12024
 Alpha virt. eigenvalues --    3.12800   3.13897   3.14229   3.15867   3.16377
 Alpha virt. eigenvalues --    3.17310   3.17844   3.19605   3.20138   3.20445
 Alpha virt. eigenvalues --    3.21401   3.22211   3.22814   3.23086   3.23622
 Alpha virt. eigenvalues --    3.24585   3.24898   3.26116   3.26847   3.27484
 Alpha virt. eigenvalues --    3.28383   3.28763   3.28894   3.30728   3.30994
 Alpha virt. eigenvalues --    3.32003   3.32265   3.32830   3.33454   3.34757
 Alpha virt. eigenvalues --    3.35784   3.36679   3.37344   3.37795   3.38636
 Alpha virt. eigenvalues --    3.39290   3.39643   3.40503   3.41253   3.42955
 Alpha virt. eigenvalues --    3.43319   3.44137   3.44556   3.45359   3.46441
 Alpha virt. eigenvalues --    3.46509   3.48368   3.49583   3.49793   3.50472
 Alpha virt. eigenvalues --    3.50789   3.52015   3.52287   3.53548   3.53763
 Alpha virt. eigenvalues --    3.55199   3.55671   3.57000   3.57773   3.58394
 Alpha virt. eigenvalues --    3.58768   3.59518   3.59764   3.60683   3.61838
 Alpha virt. eigenvalues --    3.62014   3.63211   3.63928   3.64710   3.65565
 Alpha virt. eigenvalues --    3.66174   3.67035   3.68438   3.69972   3.71241
 Alpha virt. eigenvalues --    3.72524   3.73347   3.75864   3.76945   3.77815
 Alpha virt. eigenvalues --    3.79446   3.80036   3.81935   3.83128   3.84940
 Alpha virt. eigenvalues --    3.86888   3.88008   3.89774   3.91192   3.92219
 Alpha virt. eigenvalues --    3.93330   3.94675   3.96792   3.97313   4.00764
 Alpha virt. eigenvalues --    4.02021   4.03845   4.04190   4.05326   4.06709
 Alpha virt. eigenvalues --    4.09221   4.12032   4.13036   4.13890   4.16127
 Alpha virt. eigenvalues --    4.17065   4.17828   4.20207   4.20967   4.22203
 Alpha virt. eigenvalues --    4.23121   4.24567   4.25816   4.27814   4.28264
 Alpha virt. eigenvalues --    4.29320   4.29934   4.30470   4.30909   4.32660
 Alpha virt. eigenvalues --    4.33305   4.33658   4.35089   4.35859   4.36195
 Alpha virt. eigenvalues --    4.37022   4.38368   4.39719   4.41614   4.41935
 Alpha virt. eigenvalues --    4.42679   4.43632   4.45738   4.46546   4.48604
 Alpha virt. eigenvalues --    4.52592   4.54098   4.56191   4.59013   4.60302
 Alpha virt. eigenvalues --    4.64838   4.67709   4.69933   4.73058   4.74388
 Alpha virt. eigenvalues --    4.76516   4.79735   4.80184   4.81115   4.83711
 Alpha virt. eigenvalues --    4.85343   4.87259   4.90771   4.94617   4.96463
 Alpha virt. eigenvalues --    4.97833   4.99139   5.00179   5.01014   5.02033
 Alpha virt. eigenvalues --    5.04698   5.08225   5.10098   5.12140   5.18889
 Alpha virt. eigenvalues --    5.21244   5.24354   5.25149   5.26954   5.29624
 Alpha virt. eigenvalues --    5.30642   5.31840   5.34420   5.34648   5.38138
 Alpha virt. eigenvalues --    5.42184   5.45873   5.48041   5.50727   5.51013
 Alpha virt. eigenvalues --    5.54135   5.56966   5.61058   5.65219   5.66872
 Alpha virt. eigenvalues --    5.69555   5.76600   5.78008   5.87725   5.90812
 Alpha virt. eigenvalues --    6.19137   6.44332   6.49390   6.62261   6.63797
 Alpha virt. eigenvalues --    6.92536   7.11921   7.17178  22.25279  22.30966
 Alpha virt. eigenvalues --   22.48721  22.69457  22.73275  22.73748  22.76014
 Alpha virt. eigenvalues --   22.86431  22.89594  22.91677  22.95596  23.00345
 Alpha virt. eigenvalues --   23.06565  23.16540  23.37222  23.52704  32.16564
 Alpha virt. eigenvalues --   44.03028
          Condensed to atoms (all electrons):
               1          2          3          4          5          6
     1  C    6.500738  -0.008734  -0.211754   0.112203  -0.001402  -0.000040
     2  C   -0.008734   4.842413   0.651712   0.007269   0.000233  -0.000021
     3  O   -0.211754   0.651712   8.106771   0.005074  -0.000001   0.000000
     4  C    0.112203   0.007269   0.005074   6.030681  -0.002358   0.001443
     5  C   -0.001402   0.000233  -0.000001  -0.002358   4.851769   0.411082
     6  H   -0.000040  -0.000021   0.000000   0.001443   0.411082   0.508807
     7  H    0.000663   0.000164  -0.000000  -0.013599   0.417815  -0.021565
     8  H   -0.001517  -0.000023  -0.000000   0.006775   0.415394  -0.019947
     9  N   -0.004061  -0.010279   0.000318  -0.114200   0.224949  -0.023015
    10  H   -0.000220   0.000424  -0.000061   0.005192  -0.020639  -0.005077
    11  H    0.001752   0.001566  -0.000003  -0.013325  -0.023189  -0.005504
    12  H   -0.087569  -0.001738   0.000036   0.499035  -0.000061  -0.000183
    13  C    0.121674  -0.058842  -0.002257  -0.090112   0.003272  -0.000349
    14  C   -0.014845  -0.002916  -0.000324  -0.077503  -0.002495  -0.000001
    15  C    0.006566  -0.001063  -0.000066  -0.003708  -0.001160   0.000024
    16  C   -0.001826   0.000503   0.000006   0.001966   0.000252  -0.000010
    17  C    0.003609  -0.000925  -0.000019  -0.009583   0.000053   0.000010
    18  C   -0.003888  -0.002527   0.000031  -0.091400  -0.000476   0.000114
    19  H    0.000743  -0.006560   0.000325   0.004793   0.000418   0.000030
    20  H    0.000087  -0.000062  -0.000000  -0.000567  -0.000019   0.000001
    21  H   -0.000008   0.000006  -0.000000   0.000063   0.000002  -0.000000
    22  H    0.000032  -0.000010  -0.000000  -0.000414  -0.000009   0.000000
    23  H    0.000002   0.000057  -0.000002   0.001053   0.000043  -0.000009
    24  C    0.181277  -0.067210  -0.011203  -0.154286   0.001086  -0.000055
    25  C   -0.169785  -0.005076  -0.019676   0.012049   0.000118  -0.000008
    26  C    0.026675   0.000332  -0.002607  -0.000812  -0.000018   0.000001
    27  C   -0.015724   0.000069   0.000314   0.000116   0.000035  -0.000002
    28  C    0.034859   0.000283  -0.000064  -0.009529  -0.000366   0.000037
    29  C   -0.145878   0.007659   0.002109  -0.033887  -0.004263   0.000384
    30  H   -0.036929   0.000353   0.040669   0.001432   0.000007  -0.000000
    31  H    0.000340  -0.000105  -0.000217   0.000041  -0.000000   0.000000
    32  H    0.000000   0.000010   0.000002  -0.000018   0.000000  -0.000000
    33  H    0.000080   0.000001  -0.000000   0.000099  -0.000027   0.000003
    34  H   -0.015688  -0.000481  -0.000011   0.006781   0.003210  -0.000369
    35  H   -0.198141   0.537951  -0.054613  -0.042735  -0.000066   0.000003
               7          8          9         10         11         12
     1  C    0.000663  -0.001517  -0.004061  -0.000220   0.001752  -0.087569
     2  C    0.000164  -0.000023  -0.010279   0.000424   0.001566  -0.001738
     3  O   -0.000000  -0.000000   0.000318  -0.000061  -0.000003   0.000036
     4  C   -0.013599   0.006775  -0.114200   0.005192  -0.013325   0.499035
     5  C    0.417815   0.415394   0.224949  -0.020639  -0.023189  -0.000061
     6  H   -0.021565  -0.019947  -0.023015  -0.005077  -0.005504  -0.000183
     7  H    0.508495  -0.023440  -0.038232  -0.004991   0.006015   0.000243
     8  H   -0.023440   0.511502  -0.039340   0.005946  -0.004372   0.000721
     9  N   -0.038232  -0.039340   6.686524   0.347702   0.352720  -0.056833
    10  H   -0.004991   0.005946   0.347702   0.417209  -0.017247   0.001713
    11  H    0.006015  -0.004372   0.352720  -0.017247   0.416351  -0.000009
    12  H    0.000243   0.000721  -0.056833   0.001713  -0.000009   0.475340
    13  C    0.011146  -0.005410   0.025385  -0.010429   0.007046  -0.044154
    14  C    0.001337   0.000599  -0.013291   0.003969  -0.000427   0.009990
    15  C   -0.000823  -0.000044   0.002665  -0.000836  -0.000044  -0.000841
    16  C    0.000294   0.000045  -0.000218   0.000230  -0.000016   0.000434
    17  C    0.000239  -0.000229   0.000504  -0.000341   0.000033  -0.000308
    18  C   -0.000975   0.000556   0.008646   0.001557  -0.000556   0.001063
    19  H    0.000503  -0.000070  -0.001184   0.001363   0.000119   0.000262
    20  H   -0.000019   0.000000   0.000031  -0.000019  -0.000001  -0.000001
    21  H   -0.000003   0.000000  -0.000001   0.000001  -0.000000   0.000000
    22  H   -0.000002  -0.000004   0.000013  -0.000001  -0.000000  -0.000052
    23  H    0.000174   0.000155  -0.000084   0.000024  -0.000007   0.002854
    24  C   -0.000158   0.000643  -0.000776   0.001156   0.000775   0.015089
    25  C    0.000006   0.000033  -0.002237   0.000088   0.000104   0.001773
    26  C    0.000000  -0.000007   0.000222  -0.000017  -0.000009  -0.000310
    27  C   -0.000000   0.000022  -0.000324   0.000017  -0.000003   0.000156
    28  C   -0.000006  -0.000243   0.004034  -0.000144  -0.000208  -0.002235
    29  C    0.000077  -0.001817   0.013189  -0.000350  -0.000411  -0.005332
    30  H    0.000000   0.000001  -0.000230   0.000014   0.000026   0.000197
    31  H   -0.000000   0.000000   0.000001  -0.000000  -0.000000  -0.000001
    32  H   -0.000000  -0.000000  -0.000000   0.000000   0.000001   0.000002
    33  H    0.000000  -0.000024   0.000062  -0.000004   0.000020  -0.000045
    34  H   -0.000140   0.004444  -0.005055   0.000845  -0.002718  -0.000295
    35  H   -0.000001   0.000001   0.001713   0.000021   0.000024  -0.000836
              13         14         15         16         17         18
     1  C    0.121674  -0.014845   0.006566  -0.001826   0.003609  -0.003888
     2  C   -0.058842  -0.002916  -0.001063   0.000503  -0.000925  -0.002527
     3  O   -0.002257  -0.000324  -0.000066   0.000006  -0.000019   0.000031
     4  C   -0.090112  -0.077503  -0.003708   0.001966  -0.009583  -0.091400
     5  C    0.003272  -0.002495  -0.001160   0.000252   0.000053  -0.000476
     6  H   -0.000349  -0.000001   0.000024  -0.000010   0.000010   0.000114
     7  H    0.011146   0.001337  -0.000823   0.000294   0.000239  -0.000975
     8  H   -0.005410   0.000599  -0.000044   0.000045  -0.000229   0.000556
     9  N    0.025385  -0.013291   0.002665  -0.000218   0.000504   0.008646
    10  H   -0.010429   0.003969  -0.000836   0.000230  -0.000341   0.001557
    11  H    0.007046  -0.000427  -0.000044  -0.000016   0.000033  -0.000556
    12  H   -0.044154   0.009990  -0.000841   0.000434  -0.000308   0.001063
    13  C    5.401450   0.213432   0.045126  -0.125194   0.071957   0.356921
    14  C    0.213432   5.390673   0.375025   0.059493  -0.105697   0.066025
    15  C    0.045126   0.375025   4.992660   0.388574   0.040334  -0.081171
    16  C   -0.125194   0.059493   0.388574   5.021878   0.379226   0.048898
    17  C    0.071957  -0.105697   0.040334   0.379226   5.039516   0.381028
    18  C    0.356921   0.066025  -0.081171   0.048898   0.381028   5.127047
    19  H   -0.075829   0.449907  -0.019608   0.008329  -0.002821   0.007078
    20  H    0.014026  -0.057550   0.453181  -0.055857   0.011148  -0.003732
    21  H   -0.004179   0.013254  -0.058187   0.454337  -0.057379   0.011516
    22  H    0.015336  -0.005209   0.012564  -0.059204   0.461851  -0.064142
    23  H   -0.076470   0.015987  -0.005336   0.012367  -0.057482   0.464085
    24  C    0.008579   0.004514   0.000103   0.000011  -0.000046   0.000478
    25  C   -0.003843   0.000206  -0.000001   0.000001  -0.000010   0.000037
    26  C    0.000051  -0.000010  -0.000000   0.000000   0.000000   0.000000
    27  C   -0.000021   0.000003   0.000000  -0.000000   0.000000  -0.000000
    28  C   -0.000113  -0.000026   0.000000  -0.000000   0.000000   0.000026
    29  C    0.004744  -0.000609   0.000019  -0.000008   0.000027   0.000595
    30  H   -0.000485   0.000077   0.000000  -0.000000  -0.000000   0.000006
    31  H    0.000001  -0.000000  -0.000000  -0.000000   0.000000   0.000000
    32  H   -0.000000   0.000000   0.000000   0.000000  -0.000000  -0.000000
    33  H    0.000010  -0.000000  -0.000000  -0.000000   0.000000  -0.000000
    34  H    0.001229   0.000026   0.000005   0.000000  -0.000003   0.000240
    35  H   -0.002011  -0.009648   0.002005  -0.000019   0.000049  -0.000968
              19         20         21         22         23         24
     1  C    0.000743   0.000087  -0.000008   0.000032   0.000002   0.181277
     2  C   -0.006560  -0.000062   0.000006  -0.000010   0.000057  -0.067210
     3  O    0.000325  -0.000000  -0.000000  -0.000000  -0.000002  -0.011203
     4  C    0.004793  -0.000567   0.000063  -0.000414   0.001053  -0.154286
     5  C    0.000418  -0.000019   0.000002  -0.000009   0.000043   0.001086
     6  H    0.000030   0.000001  -0.000000   0.000000  -0.000009  -0.000055
     7  H    0.000503  -0.000019  -0.000003  -0.000002   0.000174  -0.000158
     8  H   -0.000070   0.000000   0.000000  -0.000004   0.000155   0.000643
     9  N   -0.001184   0.000031  -0.000001   0.000013  -0.000084  -0.000776
    10  H    0.001363  -0.000019   0.000001  -0.000001   0.000024   0.001156
    11  H    0.000119  -0.000001  -0.000000  -0.000000  -0.000007   0.000775
    12  H    0.000262  -0.000001   0.000000  -0.000052   0.002854   0.015089
    13  C   -0.075829   0.014026  -0.004179   0.015336  -0.076470   0.008579
    14  C    0.449907  -0.057550   0.013254  -0.005209   0.015987   0.004514
    15  C   -0.019608   0.453181  -0.058187   0.012564  -0.005336   0.000103
    16  C    0.008329  -0.055857   0.454337  -0.059204   0.012367   0.000011
    17  C   -0.002821   0.011148  -0.057379   0.461851  -0.057482  -0.000046
    18  C    0.007078  -0.003732   0.011516  -0.064142   0.464085   0.000478
    19  H    0.460609  -0.005564  -0.000045   0.000014   0.000015  -0.000297
    20  H   -0.005564   0.504779  -0.006654  -0.000031   0.000013  -0.000001
    21  H   -0.000045  -0.006654   0.506151  -0.006746  -0.000036   0.000000
    22  H    0.000014  -0.000031  -0.006746   0.507208  -0.007010  -0.000001
    23  H    0.000015   0.000013  -0.000036  -0.007010   0.504544  -0.000173
    24  C   -0.000297  -0.000001   0.000000  -0.000001  -0.000173   5.358341
    25  C   -0.000017  -0.000000   0.000000  -0.000000  -0.000002   0.355658
    26  C    0.000001  -0.000000   0.000000  -0.000000  -0.000001   0.048528
    27  C   -0.000000  -0.000000   0.000000  -0.000000  -0.000000  -0.113745
    28  C    0.000000   0.000000  -0.000000   0.000000   0.000002   0.027569
    29  C   -0.000057   0.000000  -0.000000   0.000000   0.000155   0.273377
    30  H   -0.000008  -0.000000   0.000000   0.000000  -0.000001  -0.067268
    31  H    0.000000   0.000000  -0.000000   0.000000   0.000000   0.016104
    32  H   -0.000000  -0.000000   0.000000  -0.000000  -0.000000  -0.005728
    33  H    0.000000   0.000000  -0.000000   0.000000   0.000000   0.016017
    34  H   -0.000008   0.000000   0.000000   0.000000   0.000056  -0.080043
    35  H   -0.008578   0.000070   0.000004   0.000001  -0.000120   0.022915
              25         26         27         28         29         30
     1  C   -0.169785   0.026675  -0.015724   0.034859  -0.145878  -0.036929
     2  C   -0.005076   0.000332   0.000069   0.000283   0.007659   0.000353
     3  O   -0.019676  -0.002607   0.000314  -0.000064   0.002109   0.040669
     4  C    0.012049  -0.000812   0.000116  -0.009529  -0.033887   0.001432
     5  C    0.000118  -0.000018   0.000035  -0.000366  -0.004263   0.000007
     6  H   -0.000008   0.000001  -0.000002   0.000037   0.000384  -0.000000
     7  H    0.000006   0.000000  -0.000000  -0.000006   0.000077   0.000000
     8  H    0.000033  -0.000007   0.000022  -0.000243  -0.001817   0.000001
     9  N   -0.002237   0.000222  -0.000324   0.004034   0.013189  -0.000230
    10  H    0.000088  -0.000017   0.000017  -0.000144  -0.000350   0.000014
    11  H    0.000104  -0.000009  -0.000003  -0.000208  -0.000411   0.000026
    12  H    0.001773  -0.000310   0.000156  -0.002235  -0.005332   0.000197
    13  C   -0.003843   0.000051  -0.000021  -0.000113   0.004744  -0.000485
    14  C    0.000206  -0.000010   0.000003  -0.000026  -0.000609   0.000077
    15  C   -0.000001  -0.000000   0.000000   0.000000   0.000019   0.000000
    16  C    0.000001   0.000000  -0.000000  -0.000000  -0.000008  -0.000000
    17  C   -0.000010   0.000000   0.000000   0.000000   0.000027  -0.000000
    18  C    0.000037   0.000000  -0.000000   0.000026   0.000595   0.000006
    19  H   -0.000017   0.000001  -0.000000   0.000000  -0.000057  -0.000008
    20  H   -0.000000  -0.000000  -0.000000   0.000000   0.000000  -0.000000
    21  H    0.000000   0.000000   0.000000  -0.000000  -0.000000   0.000000
    22  H   -0.000000  -0.000000  -0.000000   0.000000   0.000000   0.000000
    23  H   -0.000002  -0.000001  -0.000000   0.000002   0.000155  -0.000001
    24  C    0.355658   0.048528  -0.113745   0.027569   0.273377  -0.067268
    25  C    5.256395   0.379209   0.043777  -0.109751   0.107376   0.446989
    26  C    0.379209   5.026068   0.384996   0.048042  -0.131709  -0.048964
    27  C    0.043777   0.384996   5.043480   0.392790   0.066437   0.014602
    28  C   -0.109751   0.048042   0.392790   5.043519   0.380897  -0.007872
    29  C    0.107376  -0.131709   0.066437   0.380897   5.350500   0.018741
    30  H    0.446989  -0.048964   0.014602  -0.007872   0.018741   0.500777
    31  H   -0.062996   0.460162  -0.061877   0.013248  -0.005735  -0.007705
    32  H    0.013703  -0.063985   0.462450  -0.064386   0.015814   0.000051
    33  H   -0.004768   0.011805  -0.058000   0.454162  -0.058631  -0.000016
    34  H    0.003486  -0.001387   0.005699  -0.000863   0.430436   0.000140
    35  H    0.000749  -0.000136   0.000029  -0.000027   0.000203   0.001823
              31         32         33         34         35
     1  C    0.000340   0.000000   0.000080  -0.015688  -0.198141
     2  C   -0.000105   0.000010   0.000001  -0.000481   0.537951
     3  O   -0.000217   0.000002  -0.000000  -0.000011  -0.054613
     4  C    0.000041  -0.000018   0.000099   0.006781  -0.042735
     5  C   -0.000000   0.000000  -0.000027   0.003210  -0.000066
     6  H    0.000000  -0.000000   0.000003  -0.000369   0.000003
     7  H   -0.000000  -0.000000   0.000000  -0.000140  -0.000001
     8  H    0.000000  -0.000000  -0.000024   0.004444   0.000001
     9  N    0.000001  -0.000000   0.000062  -0.005055   0.001713
    10  H   -0.000000   0.000000  -0.000004   0.000845   0.000021
    11  H   -0.000000   0.000001   0.000020  -0.002718   0.000024
    12  H   -0.000001   0.000002  -0.000045  -0.000295  -0.000836
    13  C    0.000001  -0.000000   0.000010   0.001229  -0.002011
    14  C   -0.000000   0.000000  -0.000000   0.000026  -0.009648
    15  C   -0.000000   0.000000  -0.000000   0.000005   0.002005
    16  C   -0.000000   0.000000  -0.000000   0.000000  -0.000019
    17  C    0.000000  -0.000000   0.000000  -0.000003   0.000049
    18  C    0.000000  -0.000000  -0.000000   0.000240  -0.000968
    19  H    0.000000  -0.000000   0.000000  -0.000008  -0.008578
    20  H    0.000000  -0.000000   0.000000   0.000000   0.000070
    21  H   -0.000000   0.000000  -0.000000   0.000000   0.000004
    22  H    0.000000  -0.000000   0.000000   0.000000   0.000001
    23  H    0.000000  -0.000000   0.000000   0.000056  -0.000120
    24  C    0.016104  -0.005728   0.016017  -0.080043   0.022915
    25  C   -0.062996   0.013703  -0.004768   0.003486   0.000749
    26  C    0.460162  -0.063985   0.011805  -0.001387  -0.000136
    27  C   -0.061877   0.462450  -0.058000   0.005699   0.000029
    28  C    0.013248  -0.064386   0.454162  -0.000863  -0.000027
    29  C   -0.005735   0.015814  -0.058631   0.430436   0.000203
    30  H   -0.007705   0.000051  -0.000016   0.000140   0.001823
    31  H    0.520932  -0.007225  -0.000077   0.000044  -0.000005
    32  H   -0.007225   0.518614  -0.006832  -0.000123   0.000000
    33  H   -0.000077  -0.006832   0.517581  -0.007065  -0.000000
    34  H    0.000044  -0.000123  -0.007065   0.513009   0.000033
    35  H   -0.000005   0.000000  -0.000000   0.000033   0.651864
 Mulliken charges:
               1
     1  C   -0.073291
     2  C    0.115567
     3  O   -0.504492
     4  C   -0.038030
     5  C   -0.273190
     6  H    0.154214
     7  H    0.156782
     8  H    0.149649
     9  N   -0.359316
    10  H    0.272904
    11  H    0.281496
    12  H    0.191896
    13  C    0.198311
    14  C   -0.313967
    15  C   -0.145963
    16  C   -0.134492
    17  C   -0.154741
    18  C   -0.226111
    19  H    0.186137
    20  H    0.146741
    21  H    0.147901
    22  H    0.145816
    23  H    0.145147
    24  C    0.168769
    25  C   -0.243585
    26  C   -0.136120
    27  C   -0.165297
    28  C   -0.203635
    29  C   -0.284050
    30  H    0.143571
    31  H    0.135070
    32  H    0.137648
    33  H    0.135650
    34  H    0.144564
    35  H    0.098447
 Sum of Mulliken charges =  -0.00000
 Mulliken charges with hydrogens summed into heavy atoms:
               1
     1  C   -0.073291
     2  C    0.214014
     3  O   -0.504492
     4  C    0.153866
     5  C    0.187456
     9  N    0.195085
    13  C    0.198311
    14  C   -0.127830
    15  C    0.000778
    16  C    0.013409
    17  C   -0.008925
    18  C   -0.080964
    24  C    0.168769
    25  C   -0.100014
    26  C   -0.001051
    27  C   -0.027649
    28  C   -0.067985
    29  C   -0.139486
 APT charges:
               1
     1  C    0.087899
     2  C   -0.685612
     3  O    0.010797
     4  C    0.042811
     5  C   -1.270368
     6  H    0.720943
     7  H    0.346927
     8  H    0.293031
     9  N   -0.657215
    10  H    0.534654
    11  H    0.460705
    12  H    0.371054
    13  C   -0.461442
    14  C   -0.648994
    15  C   -0.604311
    16  C   -0.650998
    17  C   -0.613908
    18  C   -0.523464
    19  H    0.280838
    20  H    0.804529
    21  H    1.096640
    22  H    0.832387
    23  H    0.286119
    24  C   -0.488568
    25  C   -0.501632
    26  C   -0.656234
    27  C   -0.693913
    28  C   -0.551159
    29  C   -0.652218
    30  H    0.359586
    31  H    0.908096
    32  H    1.080104
    33  H    0.683998
    34  H    0.161419
    35  H    0.297499
 Sum of APT charges =  -0.00000
 APT charges with hydrogens summed into heavy atoms:
               1
     1  C    0.087899
     2  C   -0.388113
     3  O    0.010797
     4  C    0.413864
     5  C    0.090532
     9  N    0.338144
    13  C   -0.461442
    14  C   -0.368156
    15  C    0.200219
    16  C    0.445642
    17  C    0.218478
    18  C   -0.237345
    24  C   -0.488568
    25  C   -0.142046
    26  C    0.251862
    27  C    0.386191
    28  C    0.132839
    29  C   -0.490799
 Electronic spatial extent (au):  <R**2>=           5267.8246
 Charge=             -0.0000 electrons
 Dipole moment (field-independent basis, Debye):
    X=             -6.2459    Y=              9.8561    Z=             -1.1235  Tot=             11.7224
 Quadrupole moment (field-independent basis, Debye-Ang):
   XX=            -98.1778   YY=           -113.3783   ZZ=           -100.7870
   XY=              6.7318   XZ=              3.9398   YZ=             -8.4207
 Traceless Quadrupole moment (field-independent basis, Debye-Ang):
   XX=              5.9365   YY=             -9.2640   ZZ=              3.3274
   XY=              6.7318   XZ=              3.9398   YZ=             -8.4207
 Octapole moment (field-independent basis, Debye-Ang**2):
  XXX=            -52.2207  YYY=             93.7289  ZZZ=            -19.9761  XYY=             -9.0260
  XXY=             -2.1546  XXZ=             10.0467  XZZ=            -37.9453  YZZ=             20.8478
  YYZ=              4.0164  XYZ=             -8.7473
 Hexadecapole moment (field-independent basis, Debye-Ang**3):
 XXXX=          -4786.9342 YYYY=          -1429.0642 ZZZZ=           -552.3085 XXXY=             69.4551
 XXXZ=             17.1292 YYYX=             30.5840 YYYZ=            -93.7797 ZZZX=            -27.4723
 ZZZY=            -21.0112 XXYY=          -1101.8389 XXZZ=           -977.6661 YYZZ=           -330.5569
 XXYZ=             17.6392 YYXZ=             48.4272 ZZXY=             -1.8103
 N-N= 1.233361818869D+03 E-N=-4.210448193916D+03  KE= 7.462328353260D+02
  Exact polarizability:   0.000   0.000   0.000   0.000   0.000   0.000
 Approx polarizability: 271.122  -2.926 234.820   5.696  16.141 191.231
   1 Symmetry operations used in ECPInt.
 ECPInt:  NShTT=   35511 NPrTT=  107400 LenC2=   31858 LenP2D=   69890.
 LDataN:  DoStor=T MaxTD1= 8 Len=  415
 D2PCM: PCM CHGder 2nd derivatives, FixD1E=F FixD2E=F DoIter=F DoCFld=F I1PDM=0
 Calling FoFJK, ICntrl=    100147 FMM=F ISym2X=0 I1Cent= 0 IOpClX= 0 NMat=1 NMatS=1 NMatT=0.
 ***** Axes restored to original set *****
 -------------------------------------------------------------------
 Center     Atomic                   Forces (Hartrees/Bohr)
 Number     Number              X              Y              Z
 -------------------------------------------------------------------
      1        6           0.000006776    0.000009210    0.000013169
      2        6          -0.000003007   -0.000001933    0.000003763
      3        8           0.000011255    0.000002456   -0.000001939
[...]
 00029136,-0.00039016,-0.00001502,0.00003248,0.00003571,0.00000337,-0.0
 0001858,-0.00001176,0.00000464,0.00000319,-0.00000082,-0.00000666,-0.0
 0000451,-0.00001031,0.00000815,-0.00014521,0.00017650,-0.00000288,-0.0
 0002030,0.00001040,-0.00000275,0.00000543,-0.00000454,0.00006514,0.000
 00195,-0.00003197,-0.00004924,-0.00012201,0.00015668,0.00001637,0.0000
 1275,-0.00001195,0.00002864,0.00000740,-0.00001591,0.00001468,0.000010
 61,0.00001972,-0.00001399,0.00000040,-0.00001022,0.00001783,-0.0000001
 5,0.00000375,0.00000820,-0.00001734,-0.00001307,0.00000554,0.00000483,
 0.00000039,0.00000361,-0.00000115,-0.00000051,0.00000263,0.00000095,-0
 .00000387,-0.00000390,-0.00000549,-0.00000052,0.00043926,0.00200114,0.
 00421574,-0.00831289,-0.03719255,-0.04300004,-0.00096875,-0.00401107,0
 .00294000,-0.00173975,-0.00080749,0.00771886,-0.00005050,0.00020621,-0
 .00110111,-0.00134608,0.00003883,0.00689542,0.01237450,0.04011330,0.03
 207968,-0.00060685,0.00120497,0.00009459,-0.00005859,0.00043361,0.0001
 6297,0.00007405,-0.00026782,-0.00013947,-0.00031096,-0.00060791,0.0000
 3303,0.00003510,-0.00003180,-0.00006363,-0.00001403,0.00003420,0.00000
 511,-0.00000569,0.00000203,0.00000504,0.00000609,-0.00000425,0.0000093
 3,-0.00004515,0.00018496,-0.00015340,-0.00000224,0.00000722,0.00001556
 ,0.00000754,-0.00002317,0.00004692,0.00004599,0.00004549,-0.00001787,0
 .00004573,0.00011960,0.00001660,-0.00002211,0.00001515,0.00001733,-0.0
 0001136,-0.00000939,0.00000722,-0.00002517,-0.00000772,-0.00000664,0.0
 0000519,0.00000138,0.00001878,-0.00007237,-0.00002169,-0.00002454,0.00
 001220,0.00000779,0.00000428,-0.00000984,-0.00000376,-0.00000254,-0.00
 000544,0.00000038,0.00000062,-0.00001021,-0.00000141,0.00000593,0.0000
 0822,0.00000528,-0.00000129,-0.00379168,-0.00254110,-0.00203381,-0.016
 45818,0.02299559,-0.00135495,-0.19875078,0.13914811,-0.01325717,0.0090
 1659,-0.00713462,0.00020929,0.00126095,-0.00191913,-0.00115133,-0.0004
 8685,-0.00106553,-0.00005986,0.00102766,-0.00035754,0.00086006,0.20836
 572,0.00009321,0.00032979,0.00001577,0.00006467,-0.00016043,-0.0000088
 5,0.00005424,0.00011487,0.00006308,-0.00018833,0.00022862,-0.00012697,
 -0.00001898,0.00001577,0.00003637,0.00000839,-0.00001821,-0.00000385,0
 .00000332,-0.00000114,-0.00000208,-0.00000572,0.00000303,-0.00000464,0
 .00003897,-0.00011518,0.00010894,0.00000451,-0.00000834,-0.00000014,-0
 .00000931,0.00000401,-0.00003154,-0.00000387,-0.00000802,0.00003100,-0
 .00004439,0.00001415,0.00003519,0.00000608,-0.00000926,-0.00000173,0.0
 0000727,0.00000270,-0.00000698,0.00000995,0.00000500,0.00000639,-0.000
 00622,-0.00000517,-0.00000124,0.00001492,0.00000253,0.00000301,-0.0000
 0396,-0.00000407,-0.00000398,0.00000306,0.00000137,0.00000083,0.000001
 82,-0.00000002,-0.00000032,0.00000193,0.00000009,-0.00000183,-0.000002
 34,0.00000045,0.00000055,-0.00259041,0.00080995,-0.00098190,-0.0078916
 8,0.00926843,-0.00093238,0.13932065,-0.19947790,0.00831355,0.02395309,
 -0.01548281,0.00206985,-0.00266618,-0.00497905,-0.00142385,-0.00091635
 ,-0.00016491,-0.00009239,0.00027505,0.00076092,0.00050873,-0.15042968,
 0.20869110,-0.00017511,0.00023670,0.00002633,-0.00001838,0.00004674,0.
 00002884,-0.00012950,-0.00010608,0.00000720,-0.00008369,-0.00001616,-0
 .00005231,0.00000956,-0.00000611,-0.00002931,-0.00000511,0.00001159,0.
 00000466,-0.00000070,-0.00000064,0.00000120,0.00000242,0.00000061,0.00
 000358,-0.00006176,0.00006781,-0.00007171,-0.00000533,0.00000639,-0.00
 000870,0.00000556,0.00000106,0.00001803,-0.00002948,-0.00001530,-0.000
 03724,0.00000701,0.00000280,-0.00001683,-0.00001090,0.00000129,0.00000
 364,0.00000070,-0.00000091,-0.00000234,-0.00000420,-0.00000113,0.00000
 073,0.00000066,0.00000268,0.00000174,-0.00000719,-0.00000425,-0.000001
 78,0.00000245,0.00000091,0.00000167,-0.00000213,-0.00000030,-0.0000005
 4,-0.00000087,-0.00000037,0.00000034,-0.00000140,-0.00000022,0.0000008
 1,0.00000181,0.00000016,-0.00000054,-0.00186351,-0.00114271,0.00771926
 ,-0.00401443,0.00398539,0.00320277,-0.01300109,0.00851087,-0.04001979,
 0.00287427,-0.00312057,0.00382755,-0.00135453,-0.00127241,0.00714514,0
 .00011455,-0.00019896,-0.00095872,0.00101793,0.00059252,-0.00439527,0.
 01579136,-0.00812393,0.02845913,-0.00013459,-0.00012134,0.00013824,-0.
 00001507,0.00017411,0.00005078,-0.00010279,-0.00018948,-0.00010568,-0.
 00002325,-0.00015504,0.00009801,0.00003119,-0.00004109,-0.00002944,-0.
 00001111,0.00002044,-0.00000225,-0.00000822,0.00000491,0.00000275,0.00
 001857,-0.00001510,0.00000527,-0.00003782,0.00006848,-0.00010306,-0.00
 002369,0.00001224,0.00001243,0.00004450,-0.00002046,0.00011951,0.00004
 362,-0.00000285,-0.00006582,0.00005832,-0.00000057,-0.00003053,-0.0000
 1617,0.00000604,0.00000976,-0.00001110,-0.00000199,0.00000540,-0.00001
 652,-0.00000657,-0.00000739,0.00000648,0.00000416,0.00000689,-0.000034
 03,-0.00000959,-0.00000831,0.00000722,0.00000479,0.00000466,-0.0000063
 2,-0.00000201,-0.00000160,-0.00000337,-0.00000024,0.00000056,-0.000005
 12,-0.00000040,0.00000360,0.00000545,0.00000161,-0.00000187,0.00051597
 ,0.00048083,0.00024606,0.00167678,-0.00122703,-0.00089958,-0.00278800,
 0.00119580,-0.00071735,-0.31344558,-0.07151731,-0.04859982,-0.01611670
 ,-0.00930149,-0.00368540,-0.00086014,0.00398160,-0.00089341,-0.0002386
 5,0.00015732,-0.00004642,0.00059715,-0.00041040,0.00067473,0.33111116,
 -0.00011057,0.00031687,0.00014687,0.00016967,-0.00019140,-0.00007540,-
 0.00037785,-0.00000439,-0.00012328,0.00006996,-0.00022912,0.00005205,0
 .00000088,0.00001150,-0.00002643,-0.00000379,0.00000884,0.00000523,0.0
 0000239,-0.00000128,0.00000264,-0.00001345,0.00001010,0.00000059,-0.00
 000249,0.00010651,-0.00005760,0.00001493,-0.00000223,0.00000043,-0.000
 02124,0.00000164,-0.00005798,-0.00004636,0.00002362,0.00001556,0.00000
 385,0.00003655,0.00002048,0.00000901,0.00000441,-0.00000317,-0.0000023
 5,-0.00000171,0.00000602,-0.00000356,-0.00000197,-0.00000319,0.0000032
 5,0.00000132,0.00000250,-0.00001141,-0.00000194,-0.00000170,0.00000117
 ,0.00000207,0.00000128,-0.00000024,-0.00000065,-0.00000033,-0.00000057
 ,0.00000021,0.,-0.00000077,-0.00000011,0.00000066,0.00000015,0.0000002
 5,0.00000104,0.00054723,-0.00115416,0.00007868,-0.00031931,-0.00548372
 ,-0.00111906,-0.03010801,-0.00231413,-0.00503415,-0.07156700,-0.080511
 68,-0.01488208,0.02196582,0.01035761,0.00401847,0.00313313,-0.00253414
 ,-0.00042700,-0.00126590,-0.00008325,-0.00015068,0.00051386,0.00113792
 ,0.00053386,0.07712507,0.07936910,0.00024463,0.00017727,-0.00101556,-0
 .00013603,0.00001229,0.00004109,0.00009778,0.00011272,-0.00008609,0.00
 006154,0.00006019,-0.00006538,-0.00000293,-0.00000216,-0.00001322,0.00
 000298,0.00000627,0.00000881,-0.00000201,-0.00000366,-0.00000629,0.000
 01107,-0.00000102,0.00000669,-0.00009788,-0.00001804,0.00001495,0.0000
 0513,0.00001539,-0.00003115,0.00001029,-0.00000993,0.00001083,0.000081
 26,-0.00000329,0.00003000,-0.00004412,-0.00000695,-0.00003407,-0.00003
 208,0.00000652,0.00001317,0.00001592,-0.00000103,-0.00001800,0.0000050
 3,0.00000688,0.00001800,-0.00001955,-0.00000498,-0.00000249,0.00001882
 ,-0.00000393,-0.00001635,0.00000167,-0.00000339,0.00000085,-0.00000134
 ,-0.00000048,0.00000020,-0.00000010,-0.00000041,0.00000048,-0.00000102
 ,-0.00000028,-0.00000016,0.00000156,-0.00000053,-0.00000122,0.00012474
 ,-0.00001537,-0.00088040,-0.00064450,-0.00127190,0.00701878,-0.0036230
 1,-0.00051200,0.00212722,-0.04856117,-0.01469082,-0.04446251,-0.000884
 10,-0.00074771,0.00249582,-0.00105345,-0.00028060,0.00720749,-0.000234
 56,-0.00007093,0.00020186,0.00078432,0.00037277,-0.00388835,0.05332939
 ,0.01653578,0.03492961,0.00022042,-0.00138050,-0.00022419,-0.00054368,
 0.00031096,0.00014502,0.00015929,-0.00015057,-0.00004192,0.00014400,-0
 .00025088,0.00010985,0.00002669,-0.00001981,-0.00005177,-0.00001218,0.
 00002558,0.00000453,-0.00000305,0.00000158,0.00000366,0.00000311,-0.00
 000214,0.00000819,-0.00004079,0.00015159,-0.00010584,0.00000366,0.0000
 0762,0.00000420,0.00000711,-0.00002284,0.00002550,0.00000014,0.0000141
 0,-0.00002144,0.00003942,0.00003691,-0.00002101,-0.00001185,0.00000686
 ,0.00000794,-0.00000831,-0.00000281,0.00000564,-0.00001478,-0.00000606
 ,-0.00000539,0.00000433,0.00000312,0.00000875,-0.00003425,-0.00000950,
 -0.00001252,0.00000703,0.00000521,0.00000598,-0.00000562,-0.00000232,-
 0.00000138,-0.00000316,0.00000003,0.00000063,-0.00000520,-0.00000053,0
 .00000342,0.00000550,0.00000138,-0.00000033,-0.00486831,-0.00061756,-0
 .00198771,-0.00121840,0.00042292,0.00002917,-0.00271025,0.00345139,-0.
 00128393,0.00975966,0.02299485,0.00299265,-0.07301176,-0.05824585,-0.0
 1057439,-0.00241562,-0.03008964,-0.00342306,0.00011314,-0.00009113,0.0
 0016672,0.00028120,0.00116902,0.00012664,0.00082373,-0.00077550,0.0006
 8816,0.07247558,-0.00015305,-0.00046458,-0.00005664,-0.00026151,0.0004
 3338,0.00014900,0.00010175,-0.00025242,-0.00011819,0.00008600,-0.00040
 909,0.00014801,0.00003383,-0.00003694,-0.00005692,-0.00001335,0.000030
 85,0.00000465,-0.00000683,0.00000238,0.00000355,0.00001312,-0.00000785
 ,0.00000961,-0.00004822,0.00016967,-0.00015494,-0.00000899,0.00001046,
 0.00001117,0.00002409,-0.00002130,0.00006960,0.00003603,0.00001468,-0.
 00003917,0.00006187,0.00002408,-0.00004606,-0.00002061,0.00001645,0.00
 001035,-0.00001243,-0.00000604,0.00000832,-0.00002076,-0.00000804,-0.0
 0000895,0.00000807,0.00000583,0.00000897,-0.00004313,-0.00001252,-0.00
 001293,0.00000972,0.00000655,0.00000658,-0.00000765,-0.00000324,-0.000
 00183,-0.00000419,-0.00000003,0.00000070,-0.00000645,-0.00000067,0.000
 00452,0.00000635,0.00000181,-0.00000122,-0.00087344,0.00190920,-0.0006
 9763,0.00022875,0.00056331,0.00018746,0.00425521,-0.00101541,-0.000086
 49,-0.00803396,-0.01593767,-0.00296712,-0.05886362,-0.32316828,-0.0343
 0566,0.00109756,-0.00456314,-0.00056353,-0.00007289,-0.00004951,0.0001
 0258,-0.00036397,-0.00097943,-0.00015009,0.00015109,0.00089510,0.00046
 081,0.06311264,0.34197866,-0.00004376,-0.00026078,0.00004943,-0.000127
 41,0.00020222,-0.00006289,0.00003984,-0.00009685,0.00001783,0.00009727
 ,-0.00010393,-0.00003759,0.00001002,-0.00001914,-0.00002126,-0.0000038
 4,0.00000897,0.00000136,-0.00000224,0.00000309,0.00000275,0.00000672,-
 0.00000115,0.00000172,-0.00007161,0.00003098,-0.00007628,-0.00002080,0
 .00000910,-0.00000282,0.00003545,0.00000065,0.00007280,0.00004128,0.00
 002745,0.00002551,0.00001172,0.00002155,0.00002322,0.00000485,0.000000
 99,-0.00000483,-0.00000157,-0.00000193,0.00000511,-0.00000370,-0.00000
 127,-0.00000174,0.00000063,0.00000129,0.00000196,-0.00001061,-0.000004
 05,-0.00000205,0.00000090,0.00000207,0.00000297,-0.00000088,-0.0000001
 4,-0.00000062,-0.00000080,-0.00000005,0.00000015,-0.00000102,-0.000000
 01,0.00000071,0.00000072,-0.00000023,-0.00000042,-0.00199146,-0.000586
 48,0.00738822,0.00007452,0.00019388,-0.00108332,-0.00115457,-0.0001968
 0,0.00744963,0.00027559,0.00168092,0.00387484,-0.01063721,-0.03418576,
 -0.04276111,-0.00084336,-0.00544209,0.00275081,0.00021633,0.00011447,-
 0.00108880,-0.00001074,0.00006438,0.00009934,0.00077058,0.00033398,-0.
 00401405,0.01265203,0.03766490,0.03167808,-0.00070227,0.00102683,0.000
 71961,0.00028727,-0.00051858,-0.00015181,-0.00013562,0.00040034,0.0001
 4059,-0.00230966,-0.00245877,0.00014557,-0.00040365,-0.00030848,-0.000
 52132,0.00011633,0.00001546,0.00013368,0.00011910,0.00002937,0.0001571
 5,-0.00036620,0.00066535,0.00027746,-0.00137413,-0.00010144,-0.0015602
 2,-0.00022366,-0.00007041,0.00014104,-0.00003283,-0.00022685,-0.000912
 39,-0.00173532,-0.00157656,0.00041919,0.00009931,-0.00015087,-0.000146
 79,0.00000591,0.00000725,-0.00003472,-0.00002837,0.00001217,0.00000990
 ,0.00001807,-0.00000596,-0.00002931,0.00003964,0.00000023,-0.00000436,
 0.00002165,0.00003028,0.00006114,-0.00000391,-0.00001675,-0.00000097,0
 .00000732,0.00000624,0.00000172,0.00000597,-0.00000046,-0.00000097,0.0
 0001121,0.00000214,-0.00000572,-0.00000651,-0.00000299,0.00000566,0.00
 837920,-0.00470272,0.00051797,0.00090091,-0.00193422,-0.00082919,-0.00
 036108,-0.00095665,-0.00006331,-0.00440316,-0.00281655,-0.00199395,-0.
 01821289,0.02453955,-0.00071568,-0.18698985,0.13955068,-0.01061464,0.0
 0025762,-0.00040885,0.00007460,-0.00004184,0.00013592,0.00016271,-0.00
 099470,0.00110022,-0.00015037,0.00092402,-0.00035945,0.00072276,0.2070
 5057,0.00074598,0.00151656,0.00084512,-0.00004778,-0.00069403,-0.00035
 580,-0.00048020,0.00048358,0.00008440,0.00017572,-0.00198223,-0.000136
 25,-0.00008103,0.00058181,0.00030992,-0.00002902,-0.00005445,-0.000029
 38,-0.00002209,-0.00007547,-0.00012460,0.00017543,-0.00053907,-0.00020
 282,0.00059029,0.00097497,0.00021193,0.00032800,-0.00016465,0.00003362
 ,-0.00043720,0.00015721,-0.00101847,-0.00094087,0.00037808,0.00078197,
 -0.00012750,0.00045718,0.00036682,0.00017642,0.00002197,-0.00008913,0.
 00003454,-0.00002104,0.00004995,0.00002932,0.00000941,0.00000002,0.000
 00969,-0.00000338,-0.00000704,0.00001799,0.00002015,0.00001989,-0.0000
 1820,0.00000616,-0.00000793,0.00002700,0.00000154,0.00000348,0.0000086
 3,0.00000433,-0.00000265,0.00001457,-0.00000007,-0.00000876,-0.0000239
 8,-0.00000248,0.00001657,0.02291947,-0.01483418,0.00169802,-0.00282940
 ,-0.00512819,-0.00149428,-0.00108657,-0.00046276,-0.00012631,-0.001955
 15,0.00125845,-0.00096107,-0.00764505,0.00853499,-0.00079812,0.1402107
 4,-0.20936974,0.00493921,0.00140111,-0.00083502,0.00017507,0.00013193,
 0.00002188,0.00014861,-0.00034821,0.00021952,-0.00004845,0.00010041,0.
 00093767,0.00056892,-0.15100274,0.21864305,0.00110694,0.00101235,-0.00
 268612,-0.00001410,-0.00067945,-0.00042347,-0.00037076,0.00037676,0.00
 010437,0.00049463,-0.00039352,0.00078707,-0.00011550,0.00031937,-0.000
 18036,-0.00000590,-0.00000365,0.00006113,0.00007298,-0.00006508,0.0000
 0242,-0.00003267,0.00007433,-0.00001472,-0.00137727,0.00023771,-0.0009
 4385,0.00012759,0.00003826,-0.00019731,-0.00149294,-0.00021061,-0.0021
 4901,0.00126065,0.00035863,0.00046723,-0.00018676,0.00002192,-0.000402
 33,-0.00012475,-0.00000077,0.00006175,0.00001479,-0.00002103,-0.000062
 63,0.00003466,0.00002138,0.00002732,-0.00003338,-0.00001892,-0.0000039
 6,0.00009191,0.00000994,-0.00001169,-0.00000490,-0.00000973,-0.0000075
 9,-0.00000316,-0.00000217,0.00000391,0.00000229,-0.00000029,-0.0000001
 1,0.00000306,-0.00000151,-0.00000335,0.00000194,0.00000248,-0.00001028
 ,0.00270155,-0.00289355,0.00301963,-0.00097263,-0.00137715,0.00658551,
 -0.00008012,-0.00027386,-0.00100018,-0.00222364,-0.00095905,0.00727811
 ,-0.00407379,0.00457814,0.00301942,-0.00989388,0.00412860,-0.03640216,
 0.00025532,-0.00003702,-0.00007053,0.00019270,0.00012689,-0.00106162,-
 0.00025858,0.00019368,0.00026895,0.00083929,0.00043152,-0.00427053,0.0
 1403753,-0.00489286,0.02806996,-0.01160666,-0.00417758,-0.00187248,-0.
 26336213,-0.06038061,-0.01520068,-0.03234499,0.02267616,0.00918288,-0.
 00212993,0.00248329,-0.00060721,-0.00013106,0.00007033,0.00029976,0.00
 007144,-0.00014700,-0.00003847,0.00002642,-0.00002181,-0.00000637,-0.0
 0001002,0.00000302,-0.00003275,0.00038254,-0.00111484,0.00090730,-0.00
 002569,-0.00011914,0.00002267,0.00003359,0.00004937,-0.00008356,0.0001
 0176,-0.00030595,0.00005427,-0.00100957,0.00355444,0.00176307,-0.00370
 584,0.00275938,-0.00101171,0.00053629,0.00063643,-0.00062254,0.0001363
 4,0.00005574,0.00103102,-0.00112228,-0.00046628,-0.00013363,0.00127992
 ,0.00024458,-0.00122582,-0.00084824,0.00103861,0.00046293,0.00004898,-
 0.00002386,0.00000032,-0.00000361,-0.00003997,0.00004037,-0.00000589,0
 .00000412,-0.00000721,0.00001798,-0.00001545,0.00000642,0.00199625,-0.
 00221368,0.00025037,-0.00022229,0.00058061,-0.00028443,-0.00000697,-0.
 00015388,-0.00003802,-0.00016549,-0.00000065,0.00000502,0.00012054,-0.
 00029482,-0.00004046,-0.00091272,0.00000773,-0.00008850,0.00039214,-0.
 00011567,0.00024012,-0.00006004,0.00002172,-0.00002304,-0.00004719,-0.
 00003021,0.00000394,-0.00009085,-0.00005157,-0.00003564,0.00008159,-0.
 00002224,0.00002690,0.31258569,-0.02888048,0.00044805,-0.00499961,-0.0
 4898734,-0.07405012,-0.00425516,0.03916203,0.00666464,-0.00531962,-0.0
 0066293,-0.00029556,0.00074668,0.00003199,-0.00004387,-0.00001832,-0.0
 0001328,0.00000988,-0.00000287,0.00000536,-0.00002557,0.00001069,-0.00
 000388,0.00001093,0.00000603,0.00011197,0.00005201,-0.00006179,-0.0000
 3132,-0.00005905,0.00005410,-0.00003577,0.00006326,-0.00005575,0.00013
 794,0.00009931,0.00011614,0.00099460,-0.00189412,-0.00103672,0.0020357
 3,-0.00099411,0.00019240,0.00033369,0.00010576,-0.00003319,-0.00002975
 ,0.00006707,0.00023420,-0.00026063,-0.00008823,0.00005872,0.00027755,0
 .00008319,-0.00022798,0.00077482,-0.00061087,0.00056954,-0.00006059,-0
 .00001136,-0.00002551,-0.00005354,0.00001544,0.00003060,-0.00002519,-0
 .00000942,0.00003549,-0.00000090,0.00003248,0.00008154,0.00114963,-0.0
 0466593,-0.00315837,0.00047923,0.00015132,0.00038129,-0.00024010,0.000
 03743,0.00019455,-0.00001121,0.00013337,-0.00003848,0.00010780,-0.0005
 5940,0.00028946,-0.00162779,0.00017781,-0.00016854,-0.00005766,0.00005
 328,-0.00036123,-0.00006106,0.00000139,0.00001019,-0.00001734,0.000012
 74,-0.00006903,-0.00014852,-0.00006389,-0.00002915,0.00009729,-0.00006
 173,-0.00009175,0.03550965,0.07521388,-0.00812238,-0.00744895,0.011242
 93,-0.01078733,-0.00136602,-0.05931028,0.01542790,-0.00632969,0.016096
 42,-0.00097144,0.00163569,-0.00253567,-0.00007987,0.00009734,0.0000831
 0,0.00006028,-0.00003142,-0.00001397,0.00003902,-0.00000108,-0.0000216
 8,-0.00000348,-0.00000756,-0.00000464,-0.00007271,-0.00050767,0.000514
 40,-0.00002198,-0.00002675,0.00001853,0.00000894,0.00000208,-0.0000082
 3,0.00006410,0.00038226,-0.00026107,-0.00003597,-0.00102085,0.00039045
 ,-0.00050766,0.00045178,0.00017675,0.00033288,0.00012801,-0.00013043,-
 0.00005639,0.00005238,0.00037997,-0.00036190,-0.00008190,-0.00017380,0
 .00031786,-0.00012476,-0.00036858,-0.00070140,0.00069884,-0.00004966,0
 .00000182,0.00002442,-0.00002216,0.00000266,-0.00001819,0.00000781,-0.
 00001354,0.00001597,0.00000016,-0.00001101,0.00001368,0.00001295,-0.00
 124360,-0.00359806,0.00467672,0.00059673,-0.00051392,-0.00009163,0.000
 24717,0.00052434,-0.00054656,0.00019655,-0.00021533,0.00006798,-0.0001
 7076,-0.00016392,-0.00056409,-0.00073659,0.00029292,-0.00022826,-0.000
 36154,0.00015590,0.00034878,-0.00000381,-0.00000872,-0.00000690,-0.000
 02209,0.00001225,0.00014046,-0.00007309,-0.00001490,-0.00001813,0.0000
 0748,0.00005038,0.00014502,0.00705514,0.01694148,0.03005330\\-0.000000
 93,-0.00000076,-0.00000040,-0.00000238,-0.00000027,-0.00000005,-0.0000
 0334,-0.00000108,-0.00000043,0.00000018,0.00000031,0.00000013,0.000001
 97,0.00000086,0.00000041,0.00000217,0.00000090,0.00000033,0.00000187,0
 .00000192,0.00000095,0.00000275,0.00000053,0.00000010,0.00000052,0.000
 00028,0.00000017,-0.00000028,0.00000071,0.00000038,0.00000055,-0.00000
 058,-0.00000035,0.00000109,0.00000001,0.00000001,-0.00000010,0.0000016
 3,0.00000088,-0.00000108,0.00000233,0.00000125,-0.00000118,0.00000359,
 0.00000193,-0.00000038,0.00000420,0.00000227,0.00000056,0.00000349,0.0
 0000184,0.00000071,0.00000223,0.00000115,-0.00000175,0.00000187,0.0000
 0107,-0.00000195,0.00000413,0.00000227,-0.00000051,0.00000517,0.000002
 76,0.00000122,0.00000395,0.00000205,0.00000148,0.00000172,0.00000085,-
 0.00000047,-0.00000191,-0.00000103,-0.00000124,-0.00000291,-0.00000150
 ,-0.00000086,-0.00000424,-0.00000219,0.00000049,-0.00000436,-0.0000023
 9,0.00000145,-0.00000363,-0.00000191,0.00000095,-0.00000231,-0.0000012
 9,-0.00000233,-0.00000270,-0.00000136,-0.00000148,-0.00000488,-0.00000
 250,0.00000088,-0.00000541,-0.00000290,0.00000242,-0.00000372,-0.00000
 208,0.00000154,-0.00000177,-0.00000091,-0.00000253,0.00000072,0.000000
 51\\\@


 AND ALL THIS SCIENCE I DON'T UNDERSTAND
 IT'S JUST MY JOB FIVE DAYS A WEEK

                           -- ELTON JOHN, "ROCKET MAN"
 Job cpu time:       1 days  2 hours 46 minutes 12.8 seconds.
 Elapsed time:       0 days  1 hours 40 minutes 27.5 seconds.
 File lengths (MBytes):  RWF=   1401 Int=      0 D2E=      0 Chk=     51 Scr=      1
 Normal termination of Gaussian 16 at Thu Feb 11 07:31:00 2021.
