 Entering Gaussian System, Link 0=g16
 Initial command:
 /apps/gaussian/16/A.03/g16/l1.exe "/beegfs/scratch/user/q/tla25/Gau-8865.inp" -scrdir="/beegfs/scratch/user/q/tla25/"
 Entering Link 1 = /apps/gaussian/16/A.03/g16/l1.exe PID=      8866.
  
 Copyright (c) 1988,1990,1992,1993,1995,1998,2003,2009,2016,
            Gaussian, Inc.  All Rights Reserved.
  
 This is part of the Gaussian(R) 16 program.  It is based on
 the Gaussian(R) 09 system (copyright 2009, Gaussian, Inc.),
 the Gaussian(R) 03 system (copyright 2003, Gaussian, Inc.),
 the Gaussian(R) 98 system (copyright 1998, Gaussian, Inc.),
 the Gaussian(R) 94 system (copyright 1995, Gaussian, Inc.),
 the Gaussian 92(TM) system (copyright 1992, Gaussian, Inc.),
 the Gaussian 90(TM) system (copyright 1990, Gaussian, Inc.),
 the Gaussian 88(TM) system (copyright 1988, Gaussian, Inc.),
 the Gaussian 86(TM) system (copyright 1986, Carnegie Mellon
 University), and the Gaussian 82(TM) system (copyright 1983,
 Carnegie Mellon University). Gaussian is a federally registered
 trademark of Gaussian, Inc.
  
 This software contains proprietary and confidential information,
 including trade secrets, belonging to Gaussian, Inc.
  
 This software is provided under written license and may be
 used, copied, transmitted, or stored only in accord with that
 written license.
  
 The following legend is applicable only to US Government
 contracts under FAR:
  
                    RESTRICTED RIGHTS LEGEND
  
 Use, reproduction and disclosure by the US Government is
 subject to restrictions as set forth in subparagraphs (a)
 and (c) of the Commercial Computer Software - Restricted
 Rights clause in FAR 52.227-19.
  
 Gaussian, Inc.
 340 Quinnipiac St., Bldg. 40, Wallingford CT 06492
  
  
 ---------------------------------------------------------------
 Warning -- This program may not be used in any manner that
 competes with the business of Gaussian, Inc. or will provide
 assistance to any competitor of Gaussian, Inc.  The licensee
 of this program is prohibited from giving any competitor of
 Gaussian, Inc. access to this program.  By using this program,
 the user acknowledges that Gaussian, Inc. is engaged in the
 business of creating and licensing software in the field of
 computational chemistry and represents and warrants to the
 licensee that it is not a competitor of Gaussian, Inc. and that
 it will not use this program in any manner prohibited above.
 ---------------------------------------------------------------
  

 Cite this work as:
 Gaussian 16, Revision A.03,
 M. J. Frisch, G. W. Trucks, H. B. Schlegel, G. E. Scuseria, 
 M. A. Robb, J. R. Cheeseman, G. Scalmani, V. Barone, 
 G. A. Petersson, H. Nakatsuji, X. Li, M. Caricato, A. V. Marenich, 
 J. Bloino, B. G. Janesko, R. Gomperts, B. Mennucci, H. P. Hratchian, 
 J. V. Ortiz, A. F. Izmaylov, J. L. Sonnenberg, D. Williams-Young, 
 F. Ding, F. Lipparini, F. Egidi, J. Goings, B. Peng, A. Petrone, 
 T. Henderson, D. Ranasinghe, V. G. Zakrzewski, J. Gao, N. Rega, 
 G. Zheng, W. Liang, M. Hada, M. Ehara, K. Toyota, R. Fukuda, 
 J. Hasegawa, M. Ishida, T. Nakajima, Y. Honda, O. Kitao, H. Nakai, 
 T. Vreven, K. Throssell, J. A. Montgomery, Jr., J. E. Peralta, 
 F. Ogliaro, M. J. Bearpark, J. J. Heyd, E. N. Brothers, K. N. Kudin, 
 V. N. Staroverov, T. A. Keith, R. Kobayashi, J. Normand, 
 K. Raghavachari, A. P. Rendell, J. C. Burant, S. S. Iyengar, 
 J. Tomasi, M. Cossi, J. M. Millam, M. Klene, C. Adamo, R. Cammi, 
 J. W. Ochterski, R. L. Martin, K. Morokuma, O. Farkas, 
 J. B. Foresman, and D. J. Fox, Gaussian, Inc., Wallingford CT, 2016.
 
 ******************************************
 Gaussian 16:  ES64L-G16RevA.03 25-Dec-2016
                10-Feb-2021 
 ******************************************
 %nprocshared=16
 Will use up to   16 processors via shared memory.
 %mem=48GB
 ----------------------------------------------------------------------
 # wB97XD def2tzvp, opt=(ts, noeigen, calcfc, maxcycles=70, maxstep=8),
  freq=noraman, scrf=(iefpcm, solvent=water)
 ----------------------------------------------------------------------
 1/5=1,6=70,8=8,10=4,11=1,18=20,26=3,38=1/1,3;
 2/9=110,12=2,17=6,18=5,40=1/2;
 3/5=44,7=101,11=2,25=1,30=1,70=2201,71=2,72=1,74=-58,140=1/1,2,3;
 4//1;
 5/5=2,38=5,53=1/2;
 8/6=4,10=90,11=11/1;
 11/6=1,8=1,9=11,15=111,16=1/1,2,10;
 10/6=1,13=1/2;
 6/7=2,8=2,9=2,10=2,28=1/1;
 7/10=1,18=20,25=1/1,2,3,16;
 1/5=1,6=70,8=8,10=4,11=1,18=20,26=3/3(2);
 2/9=110/2;
 99//99;
 2/9=110/2;
 3/5=44,7=101,11=2,25=1,30=1,70=2205,71=1,72=1,74=-58/1,2,3;
 4/5=5,16=3,69=1/1;
 5/5=2,38=5,53=1/2;
 7//1,2,3,16;
 1/5=1,6=70,8=8,11=1,18=20,26=3/3(-5);
 2/9=110/2;
 6/7=2,8=2,9=2,10=2,19=2,28=1/1;
 99/9=1/99;
 ------------------------
 1_iteration/TS-259-1.out
 ------------------------
 Symbolic Z-matrix:
 Charge =  0 Multiplicity = 1
 C                     0.59626   0.57454   0.3305 
 C                     1.51877  -0.45766  -0.01003 
 O                     2.65193  -0.23725  -0.47956 
 C                    -0.69903   0.29664   0.78767 
 C                    -3.25808  -0.31736  -0.11266 
 H                    -3.92713  -0.51009  -0.95073 
 H                    -3.22717  -1.1957    0.52998 
 H                    -3.6362    0.52681   0.46137 
 N                    -1.89993  -0.01305  -0.56207 
 H                    -1.49517  -0.7768   -1.0918 
 H                    -1.87077   0.81428  -1.14647 
 H                    -1.24719   1.1207    1.23642 
 H                    -0.898    -0.63599   1.30808 
 C                     0.98049   1.99066  -0.0173 
 H                     0.25216   2.69525   0.39168 
 H                     1.9603    2.25931   0.38612 
 H                     1.03183   2.17056  -1.09824 
 N                     1.13704  -1.79368   0.1304 
 H                     0.42835  -2.02116   0.80734 
 H                     1.92322  -2.42293   0.15524 
 
 Add virtual bond connecting atoms N9         and C4         Dist= 3.46D+00.

 GradGradGradGradGradGradGradGradGradGradGradGradGradGradGradGradGradGrad
 Berny optimization.
 Initialization pass.
                           ----------------------------
                           !    Initial Parameters    !
                           ! (Angstroms and Degrees)  !
 --------------------------                            --------------------------
 ! Name  Definition              Value          Derivative Info.                !
 --------------------------------------------------------------------------------
 ! R1    R(1,2)                  1.4256         calculate D2E/DX2 analytically  !
 ! R2    R(1,4)                  1.4014         calculate D2E/DX2 analytically  !
 ! R3    R(1,14)                 1.508          calculate D2E/DX2 analytically  !
 ! R4    R(2,3)                  1.2462         calculate D2E/DX2 analytically  !
 ! R5    R(2,18)                 1.3966         calculate D2E/DX2 analytically  !
 ! R6    R(4,9)                  1.833          calculate D2E/DX2 analytically  !
 ! R7    R(4,12)                 1.0867         calculate D2E/DX2 analytically  !
 ! R8    R(4,13)                 1.0864         calculate D2E/DX2 analytically  !
 ! R9    R(5,6)                  1.0896         calculate D2E/DX2 analytically  !
 ! R10   R(5,7)                  1.0888         calculate D2E/DX2 analytically  !
 ! R11   R(5,8)                  1.0886         calculate D2E/DX2 analytically  !
 ! R12   R(5,9)                  1.4626         calculate D2E/DX2 analytically  !
 ! R13   R(9,10)                 1.0138         calculate D2E/DX2 analytically  !
 ! R14   R(9,11)                 1.0133         calculate D2E/DX2 analytically  !
 ! R15   R(14,15)                1.0928         calculate D2E/DX2 analytically  !
 ! R16   R(14,16)                1.0931         calculate D2E/DX2 analytically  !
 ! R17   R(14,17)                1.097          calculate D2E/DX2 analytically  !
 ! R18   R(18,19)                1.0061         calculate D2E/DX2 analytically  !
 ! R19   R(18,20)                1.0073         calculate D2E/DX2 analytically  !
 ! A1    A(2,1,4)              122.1696         calculate D2E/DX2 analytically  !
 ! A2    A(2,1,14)             117.3844         calculate D2E/DX2 analytically  !
 ! A3    A(4,1,14)             119.7989         calculate D2E/DX2 analytically  !
 ! A4    A(1,2,3)              123.3889         calculate D2E/DX2 analytically  !
 ! A5    A(1,2,18)             119.4558         calculate D2E/DX2 analytically  !
 ! A6    A(3,2,18)             117.1045         calculate D2E/DX2 analytically  !
 ! A7    A(1,4,9)              113.505          calculate D2E/DX2 analytically  !
 ! A8    A(1,4,12)             116.7795         calculate D2E/DX2 analytically  !
 ! A9    A(1,4,13)             119.7213         calculate D2E/DX2 analytically  !
 ! A10   A(9,4,12)              95.8381         calculate D2E/DX2 analytically  !
 ! A11   A(9,4,13)              95.0316         calculate D2E/DX2 analytically  !
 ! A12   A(12,4,13)            111.1489         calculate D2E/DX2 analytically  !
 ! A13   A(6,5,7)              109.1922         calculate D2E/DX2 analytically  !
 ! A14   A(6,5,8)              109.2367         calculate D2E/DX2 analytically  !
 ! A15   A(6,5,9)              111.7568         calculate D2E/DX2 analytically  !
 ! A16   A(7,5,8)              108.917          calculate D2E/DX2 analytically  !
 ! A17   A(7,5,9)              108.8355         calculate D2E/DX2 analytically  !
 ! A18   A(8,5,9)              108.8576         calculate D2E/DX2 analytically  !
 ! A19   A(4,9,5)              114.6623         calculate D2E/DX2 analytically  !
 ! A20   A(4,9,10)             104.5056         calculate D2E/DX2 analytically  !
 ! A21   A(4,9,11)             105.5376         calculate D2E/DX2 analytically  !
 ! A22   A(5,9,10)             111.997          calculate D2E/DX2 analytically  !
 ! A23   A(5,9,11)             111.9502         calculate D2E/DX2 analytically  !
 ! A24   A(10,9,11)            107.5924         calculate D2E/DX2 analytically  !
 ! A25   A(1,14,15)            110.4477         calculate D2E/DX2 analytically  !
 ! A26   A(1,14,16)            111.966          calculate D2E/DX2 analytically  !
 ! A27   A(1,14,17)            113.153          calculate D2E/DX2 analytically  !
 ! A28   A(15,14,16)           107.5068         calculate D2E/DX2 analytically  !
 ! A29   A(15,14,17)           107.1113         calculate D2E/DX2 analytically  !
 ! A30   A(16,14,17)           106.3433         calculate D2E/DX2 analytically  !
 ! A31   A(2,18,19)            118.4565         calculate D2E/DX2 analytically  !
 ! A32   A(2,18,20)            112.7527         calculate D2E/DX2 analytically  !
 ! A33   A(19,18,20)           113.0748         calculate D2E/DX2 analytically  !
 ! D1    D(4,1,2,3)            176.4021         calculate D2E/DX2 analytically  !
 ! D2    D(4,1,2,18)            -0.9288         calculate D2E/DX2 analytically  !
 ! D3    D(14,1,2,3)             5.6491         calculate D2E/DX2 analytically  !
 ! D4    D(14,1,2,18)         -171.6818         calculate D2E/DX2 analytically  !
 ! D5    D(2,1,4,9)            -83.5932         calculate D2E/DX2 analytically  !
 ! D6    D(2,1,4,12)           166.3017         calculate D2E/DX2 analytically  !
 ! D7    D(2,1,4,13)            27.4096         calculate D2E/DX2 analytically  !
 ! D8    D(14,1,4,9)            86.9429         calculate D2E/DX2 analytically  !
 ! D9    D(14,1,4,12)          -23.1622         calculate D2E/DX2 analytically  !
 ! D10   D(14,1,4,13)         -162.0543         calculate D2E/DX2 analytically  !
 ! D11   D(2,1,14,15)         -173.606          calculate D2E/DX2 analytically  !
 ! D12   D(2,1,14,16)          -53.8334         calculate D2E/DX2 analytically  !
 ! D13   D(2,1,14,17)           66.3304         calculate D2E/DX2 analytically  !
 ! D14   D(4,1,14,15)           15.4121         calculate D2E/DX2 analytically  !
 ! D15   D(4,1,14,16)          135.1847         calculate D2E/DX2 analytically  !
 ! D16   D(4,1,14,17)         -104.6514         calculate D2E/DX2 analytically  !
 ! D17   D(1,2,18,19)          -26.1573         calculate D2E/DX2 analytically  !
 ! D18   D(1,2,18,20)         -161.4499         calculate D2E/DX2 analytically  !
 ! D19   D(3,2,18,19)          156.3461         calculate D2E/DX2 analytically  !
 ! D20   D(3,2,18,20)           21.0535         calculate D2E/DX2 analytically  !
 ! D21   D(1,4,9,5)            179.4936         calculate D2E/DX2 analytically  !
 ! D22   D(1,4,9,10)            56.502          calculate D2E/DX2 analytically  !
 ! D23   D(1,4,9,11)           -56.8246         calculate D2E/DX2 analytically  !
 ! D24   D(12,4,9,5)           -57.9345         calculate D2E/DX2 analytically  !
 ! D25   D(12,4,9,10)          179.0738         calculate D2E/DX2 analytically  !
 ! D26   D(12,4,9,11)           65.7472         calculate D2E/DX2 analytically  !
 ! D27   D(13,4,9,5)            53.9711         calculate D2E/DX2 analytically  !
 ! D28   D(13,4,9,10)          -69.0206         calculate D2E/DX2 analytically  !
 ! D29   D(13,4,9,11)          177.6529         calculate D2E/DX2 analytically  !
 ! D30   D(6,5,9,4)           -178.9967         calculate D2E/DX2 analytically  !
 ! D31   D(6,5,9,10)           -60.1325         calculate D2E/DX2 analytically  !
 ! D32   D(6,5,9,11)            60.8152         calculate D2E/DX2 analytically  !
 ! D33   D(7,5,9,4)            -58.325          calculate D2E/DX2 analytically  !
 ! D34   D(7,5,9,10)            60.5393         calculate D2E/DX2 analytically  !
 ! D35   D(7,5,9,11)          -178.5131         calculate D2E/DX2 analytically  !
 ! D36   D(8,5,9,4)             60.2612         calculate D2E/DX2 analytically  !
 ! D37   D(8,5,9,10)           179.1255         calculate D2E/DX2 analytically  !
 ! D38   D(8,5,9,11)           -59.9269         calculate D2E/DX2 analytically  !
 --------------------------------------------------------------------------------
 Trust Radius=8.00D-02 FncErr=1.00D-07 GrdErr=1.00D-06 EigMax=2.50D+02 EigMin=1.00D-04
 Number of steps in this run=     70 maximum allowed number of steps=    120.
 Search for a saddle point of order  1.
 GradGradGradGradGradGradGradGradGradGradGradGradGradGradGradGradGradGrad

                          Input orientation:                          
 ---------------------------------------------------------------------
 Center     Atomic      Atomic             Coordinates (Angstroms)
 Number     Number       Type             X           Y           Z
 ---------------------------------------------------------------------
      1          6           0        0.596260    0.574540    0.330500
      2          6           0        1.518770   -0.457660   -0.010030
      3          8           0        2.651930   -0.237250   -0.479560
      4          6           0       -0.699030    0.296640    0.787670
      5          6           0       -3.258080   -0.317360   -0.112660
      6          1           0       -3.927130   -0.510090   -0.950730
      7          1           0       -3.227170   -1.195700    0.529980
      8          1           0       -3.636200    0.526810    0.461370
      9          7           0       -1.899930   -0.013050   -0.562070
     10          1           0       -1.495170   -0.776800   -1.091800
     11          1           0       -1.870770    0.814280   -1.146470
     12          1           0       -1.247190    1.120700    1.236420
     13          1           0       -0.898000   -0.635990    1.308080
     14          6           0        0.980490    1.990660   -0.017300
     15          1           0        0.252160    2.695250    0.391680
     16          1           0        1.960300    2.259310    0.386120
     17          1           0        1.031830    2.170560   -1.098240
     18          7           0        1.137040   -1.793680    0.130400
     19          1           0        0.428350   -2.021160    0.807340
     20          1           0        1.923220   -2.422930    0.155240
 ---------------------------------------------------------------------
                    Distance matrix (angstroms):
                    1          2          3          4          5
     1  C    0.000000
     2  C    1.425630   0.000000
     3  O    2.353928   1.246231   0.000000
     4  C    1.401431   2.474658   3.622132   0.000000
     5  C    3.980931   4.780012   5.921930   2.781425   0.000000
     6  H    4.824835   5.526798   6.601551   3.754128   1.089557
     7  H    4.218075   4.833245   6.041657   2.947028   1.088771
     8  H    4.234752   5.269261   6.403883   2.964189   1.088627
     9  N    2.715310   3.491409   4.558125   1.832994   1.462582
    10  H    2.867601   3.218060   4.226629   2.306192   2.068249
    11  H    2.885334   3.794510   4.690981   2.319876   2.067366
    12  H    2.125392   3.419853   4.471214   1.086706   2.816330
    13  H    2.157280   2.758622   3.994578   1.086377   2.773086
    14  C    1.507977   2.506805   2.823292   2.517631   4.827165
    15  H    2.149316   3.421478   3.888124   2.610536   4.653167
    16  H    2.168444   2.780973   2.731404   3.329467   5.841190
    17  H    2.185932   2.885975   2.967328   3.172398   5.056129
    18  N    2.437406   1.396563   2.255974   2.858775   4.642809
    19  H    2.644471   2.074040   3.127740   2.577512   4.164025
    20  H    3.282737   2.013251   2.389809   3.830434   5.599202
                    6          7          8          9         10
     6  H    0.000000
     7  H    1.775530   0.000000
     8  H    1.775902   1.771737   0.000000
     9  N    2.123122   2.086337   2.086507   0.000000
    10  H    2.450605   2.409455   2.948855   1.013784   0.000000
    11  H    2.453749   2.947936   2.405105   1.013335   1.635726
    12  H    3.824288   3.128112   2.580848   2.223966   3.013737
    13  H    3.780701   2.518680   3.093018   2.211194   2.477068
    14  C    5.586571   5.306299   4.866807   3.550838   3.865524
    15  H    5.435323   5.221528   4.452677   3.588317   4.160409
    16  H    6.642182   6.234391   5.859013   4.578653   4.831406
    17  H    5.639054   5.667617   5.188911   3.694705   3.882358
    18  N    5.335004   4.423073   5.317710   3.587944   3.075117
    19  H    4.933999   3.757810   4.809617   3.365810   2.975751
    20  H    6.253697   5.307828   6.300939   4.575864   3.993776
                   11         12         13         14         15
    11  H    0.000000
    12  H    2.482118   0.000000
    13  H    3.012371   1.792492   0.000000
    14  C    3.284597   2.700223   3.490651   0.000000
    15  H    3.226575   2.332562   3.641403   1.092784   0.000000
    16  H    4.371961   3.508195   4.171649   1.093137   1.762900
    17  H    3.204202   3.427357   4.170293   1.097010   1.761547
    18  N    4.180762   3.924467   2.620795   3.790455   4.582769
    19  H    4.140416   3.586479   1.982080   4.132746   4.737968
    20  H    5.154448   4.876245   3.532913   4.516446   5.389259
                   16         17         18         19         20
    16  H    0.000000
    17  H    1.753071   0.000000
    18  N    4.143655   4.151605   0.000000
    19  H    4.565821   4.643914   1.006100   0.000000
    20  H    4.688076   4.844165   1.007299   1.679670   0.000000
 Stoichiometry    C5H12N2O
 Framework group  C1[X(C5H12N2O)]
 Deg. of freedom    54
 Full point group                 C1      NOp   1
 Largest Abelian subgroup         C1      NOp   1
 Largest concise Abelian subgroup C1      NOp   1
                         Standard orientation:                         
 ---------------------------------------------------------------------
 Center     Atomic      Atomic             Coordinates (Angstroms)
 Number     Number       Type             X           Y           Z
 ---------------------------------------------------------------------
      1          6           0        0.596261    0.574540    0.330502
      2          6           0        1.518772   -0.457660   -0.010028
      3          8           0        2.651932   -0.237249   -0.479558
      4          6           0       -0.699029    0.296639    0.787672
      5          6           0       -3.258078   -0.317363   -0.112658
      6          1           0       -3.927128   -0.510093   -0.950728
      7          1           0       -3.227168   -1.195703    0.529982
      8          1           0       -3.636199    0.526807    0.461372
      9          7           0       -1.899928   -0.013052   -0.562068
     10          1           0       -1.495168   -0.776802   -1.091798
     11          1           0       -1.870769    0.814278   -1.146468
     12          1           0       -1.247189    1.120698    1.236422
     13          1           0       -0.897998   -0.635991    1.308082
     14          6           0        0.980490    1.990660   -0.017298
     15          1           0        0.252160    2.695249    0.391682
     16          1           0        1.960300    2.259311    0.386122
     17          1           0        1.031830    2.170560   -1.098238
     18          7           0        1.137043   -1.793680    0.130402
     19          1           0        0.428353   -2.021160    0.807342
     20          1           0        1.923223   -2.422930    0.155242
 ---------------------------------------------------------------------
 Rotational constants (GHZ):           3.1397301           1.1485136           0.9226017
 Standard basis: def2TZVP (5D, 7F)
 There are   360 symmetry adapted cartesian basis functions of A   symmetry.
 There are   320 symmetry adapted basis functions of A   symmetry.
   320 basis functions,   504 primitive gaussians,   360 cartesian basis functions
    32 alpha electrons       32 beta electrons
       nuclear repulsion energy       389.1366728015 Hartrees.
 NAtoms=   20 NActive=   20 NUniq=   20 SFac= 1.00D+00 NAtFMM=   60 NAOKFM=F Big=F
 Integral buffers will be    131072 words long.
 Raffenetti 2 integral format.
 Two-electron integral symmetry is turned on.
 Nuclear repulsion after empirical dispersion term =      389.1254084991 Hartrees.
 Force inversion solution in PCM.
 ------------------------------------------------------------------------------
 Polarizable Continuum Model (PCM)
 =================================
 Model                : PCM.
 Atomic radii         : UFF (Universal Force Field).
 Polarization charges : Total charges.
 Charge compensation  : None.
 Solution method      : Matrix inversion.
 Cavity type          : Scaled VdW (van der Waals Surface) (Alpha=1.100).
 Cavity algorithm     : GePol (No added spheres)
                        Default sphere list used, NSphG=   20.
                        Lebedev-Laikov grids with approx.  5.0 points / Ang**2.
                        Smoothing algorithm: York/Karplus (Gamma=1.0000).
                        Polarization charges: spherical gaussians, with
                                              point-specific exponents (IZeta= 3).
                        Self-potential: point-specific (ISelfS= 7).
                        Self-field    : sphere-specific E.n sum rule (ISelfD= 2).
 1st derivatives      : Analytical E(r).r(x)/FMM algorithm (CHGder, D1EAlg=3).
                        Cavity 1st derivative terms included.
 2nd derivatives      : Analytical E(r).r(xy)/FMM algorithm (CHGder, D2EAlg=3).
                        Cavity 2nd derivative terms included.
 Solvent              : Water, Eps=  78.355300 Eps(inf)=   1.777849
 ------------------------------------------------------------------------------
 Spheres list:
 ISph  on   Nord     Re0    Alpha      Xe            Ye            Ze
    1   C      1    1.9255  1.100      0.596261      0.574540      0.330502
    2   C      2    1.9255  1.100      1.518772     -0.457660     -0.010028
    3   O      3    1.7500  1.100      2.651932     -0.237249     -0.479558
    4   C      4    1.9255  1.100     -0.699029      0.296639      0.787672
    5   C      5    1.9255  1.100     -3.258078     -0.317363     -0.112658
    6   H      6    1.4430  1.100     -3.927128     -0.510093     -0.950728
    7   H      7    1.4430  1.100     -3.227168     -1.195703      0.529982
    8   H      8    1.4430  1.100     -3.636199      0.526807      0.461372
    9   N      9    1.8300  1.100     -1.899928     -0.013052     -0.562068
   10   H     10    1.4430  1.100     -1.495168     -0.776802     -1.091798
   11   H     11    1.4430  1.100     -1.870769      0.814278     -1.146468
   12   H     12    1.4430  1.100     -1.247189      1.120698      1.236422
   13   H     13    1.4430  1.100     -0.897998     -0.635991      1.308082
   14   C     14    1.9255  1.100      0.980490      1.990660     -0.017298
   15   H     15    1.4430  1.100      0.252160      2.695249      0.391682
   16   H     16    1.4430  1.100      1.960300      2.259311      0.386122
   17   H     17    1.4430  1.100      1.031830      2.170560     -1.098238
   18   N     18    1.8300  1.100      1.137043     -1.793680      0.130402
   19   H     19    1.4430  1.100      0.428353     -2.021160      0.807342
   20   H     20    1.4430  1.100      1.923223     -2.422930      0.155242
 ------------------------------------------------------------------------------
 One-electron integrals computed using PRISM.
   1 Symmetry operations used in ECPInt.
 ECPInt:  NShTT=    9316 NPrTT=   27240 LenC2=    9027 LenP2D=   20868.
 LDataN:  DoStor=T MaxTD1= 6 Len=  172
 NBasis=   320 RedAO= T EigKep=  1.16D-04  NBF=   320
 NBsUse=   320 1.00D-06 EigRej= -1.00D+00 NBFU=   320
 ExpMin= 9.52D-02 ExpMax= 2.70D+04 ExpMxC= 9.22D+02 IAcc=3 IRadAn=         5 AccDes= 0.00D+00
 Harris functional with IExCor= 4639 and IRadAn=       5 diagonalized for initial guess.
 HarFok:  IExCor= 4639 AccDes= 0.00D+00 IRadAn=         5 IDoV= 1 UseB2=F ITyADJ=14
 ICtDFT=  3500011 ScaDFX=  1.000000  1.000000  1.000000  1.000000
 FoFCou: FMM=F IPFlag=           0 FMFlag=      100000 FMFlg1=           0
         NFxFlg=           0 DoJE=T BraDBF=F KetDBF=T FulRan=T
         wScrn=  0.000000 ICntrl=       500 IOpCl=  0 I1Cent=   200000004 NGrid=           0
         NMat0=    1 NMatS0=      1 NMatT0=    0 NMatD0=    1 NMtDS0=    0 NMtDT0=    0
 Petite list used in FoFCou.
 Requested convergence on RMS density matrix=1.00D-08 within 128 cycles.
 Requested convergence on MAX density matrix=1.00D-06.
 Requested convergence on             energy=1.00D-06.
 No special actions if energy rises.
 Inv3:  Mode=1 IEnd=     7207500.
 Iteration    1 A*A^-1 deviation from unit magnitude is 4.11D-15 for   1549.
 Iteration    1 A*A^-1 deviation from orthogonality  is 2.80D-15 for   1509   1421.
 Iteration    1 A^-1*A deviation from unit magnitude is 4.55D-15 for   1549.
 Iteration    1 A^-1*A deviation from orthogonality  is 1.83D-14 for   1306   1272.
 Error on total polarization charges =  0.01218
 SCF Done:  E(RwB97XD) =  -382.486159218     A.U. after   14 cycles
            NFock= 14  Conv=0.84D-08     -V/T= 2.0049
 DoSCS=F DFT=T ScalE2(SS,OS)=  1.000000  1.000000
 Range of M.O.s used for correlation:     1   320
 NBasis=   320 NAE=    32 NBE=    32 NFC=     0 NFV=     0
 NROrb=    320 NOA=    32 NOB=    32 NVA=   288 NVB=   288

 **** Warning!!: The largest alpha MO coefficient is  0.21019420D+02

   1 Symmetry operations used in ECPInt.
 ECPInt:  NShTT=    9316 NPrTT=   27240 LenC2=    9027 LenP2D=   20868.
 LDataN:  DoStor=T MaxTD1= 7 Len=  274
 Symmetrizing basis deriv contribution to polar:
 IMax=3 JMax=2 DiffMx= 0.00D+00
 G2DrvN: will do    21 centers at a time, making    1 passes.
 Calling FoFCou, ICntrl=  3107 FMM=F I1Cent=   0 AccDes= 0.00D+00.
 NEqPCM:  Using equilibrium solvation (IEInf=0, Eps=  78.3553, EpsInf=   1.7778)
 G2PCM: DoFxE=T DoFxN=T DoGrad=T DoDP/DQ/DG/TGxP=FFFF NFrqRd=   0 IEInf=0 SqF1=F DoCFld=F IF1Alg=4.
 End of G2Drv F.D. properties file   721 does not exist.
 End of G2Drv F.D. properties file   722 does not exist.
 End of G2Drv F.D. properties file   788 does not exist.
          IDoAtm=11111111111111111111
 NEqPCM:  Using equilibrium solvation (IEInf=0, Eps=  78.3553, EpsInf=   1.7778)
          Differentiating once with respect to nuclear coordinates.
 Keep R1 ints in memory in canonical form, NReq=2661434262.
          There are    63 degrees of freedom in the 1st order CPHF.  IDoFFX=6 NUNeed=     0.
     57 vectors produced by pass  0 Test12= 1.46D-14 1.59D-09 XBig12= 1.20D-01 1.35D-01.
 AX will form    57 AO Fock derivatives at one time.
     57 vectors produced by pass  1 Test12= 1.46D-14 1.59D-09 XBig12= 2.93D-02 3.46D-02.
     57 vectors produced by pass  2 Test12= 1.46D-14 1.59D-09 XBig12= 6.36D-04 3.95D-03.
     57 vectors produced by pass  3 Test12= 1.46D-14 1.59D-09 XBig12= 8.23D-06 4.22D-04.
     57 vectors produced by pass  4 Test12= 1.46D-14 1.59D-09 XBig12= 9.02D-08 3.69D-05.
     57 vectors produced by pass  5 Test12= 1.46D-14 1.59D-09 XBig12= 7.87D-10 3.02D-06.
     57 vectors produced by pass  6 Test12= 1.46D-14 1.59D-09 XBig12= 4.68D-12 2.03D-07.
     15 vectors produced by pass  7 Test12= 1.46D-14 1.59D-09 XBig12= 2.68D-14 2.01D-08.
 InvSVY:  IOpt=1 It=  1 EMax= 4.44D-16
 Solved reduced A of dimension   414 with    63 vectors.
 End of Minotr F.D. properties file   721 does not exist.
 End of Minotr F.D. properties file   722 does not exist.
 End of Minotr F.D. properties file   788 does not exist.

 **********************************************************************

            Population analysis using the SCF density.

 **********************************************************************

 Orbital symmetries:
       Occupied  (A) (A) (A) (A) (A) (A) (A) (A) (A) (A) (A) (A)
                 (A) (A) (A) (A) (A) (A) (A) (A) (A) (A) (A) (A)
                 (A) (A) (A) (A) (A) (A) (A) (A)
       Virtual   (A) (A) (A) (A) (A) (A) (A) (A) (A) (A) (A) (A)
                 (A) (A) (A) (A) (A) (A) (A) (A) (A) (A) (A) (A)
                 (A) (A) (A) (A) (A) (A) (A) (A) (A) (A) (A) (A)
                 (A) (A) (A) (A) (A) (A) (A) (A) (A) (A) (A) (A)
                 (A) (A) (A) (A) (A) (A) (A) (A) (A) (A) (A) (A)
                 (A) (A) (A) (A) (A) (A) (A) (A) (A) (A) (A) (A)
                 (A) (A) (A) (A) (A) (A) (A) (A) (A) (A) (A) (A)
                 (A) (A) (A) (A) (A) (A) (A) (A) (A) (A) (A) (A)
                 (A) (A) (A) (A) (A) (A) (A) (A) (A) (A) (A) (A)
                 (A) (A) (A) (A) (A) (A) (A) (A) (A) (A) (A) (A)
                 (A) (A) (A) (A) (A) (A) (A) (A) (A) (A) (A) (A)
                 (A) (A) (A) (A) (A) (A) (A) (A) (A) (A) (A) (A)
                 (A) (A) (A) (A) (A) (A) (A) (A) (A) (A) (A) (A)
                 (A) (A) (A) (A) (A) (A) (A) (A) (A) (A) (A) (A)
                 (A) (A) (A) (A) (A) (A) (A) (A) (A) (A) (A) (A)
                 (A) (A) (A) (A) (A) (A) (A) (A) (A) (A) (A) (A)
                 (A) (A) (A) (A) (A) (A) (A) (A) (A) (A) (A) (A)
                 (A) (A) (A) (A) (A) (A) (A) (A) (A) (A) (A) (A)
                 (A) (A) (A) (A) (A) (A) (A) (A) (A) (A) (A) (A)
                 (A) (A) (A) (A) (A) (A) (A) (A) (A) (A) (A) (A)
                 (A) (A) (A) (A) (A) (A) (A) (A) (A) (A) (A) (A)
                 (A) (A) (A) (A) (A) (A) (A) (A) (A) (A) (A) (A)
                 (A) (A) (A) (A) (A) (A) (A) (A) (A) (A) (A) (A)
                 (A) (A) (A) (A) (A) (A) (A) (A) (A) (A) (A) (A)
 The electronic state is 1-A.
 Alpha  occ. eigenvalues --  -19.18246 -14.48965 -14.42268 -10.35540 -10.32309
 Alpha  occ. eigenvalues --  -10.32067 -10.25972 -10.23943  -1.10328  -1.04349
 Alpha  occ. eigenvalues --   -0.97340  -0.87941  -0.79529  -0.77338  -0.71935
 Alpha  occ. eigenvalues --   -0.63962  -0.62136  -0.59703  -0.57189  -0.54391
 Alpha  occ. eigenvalues --   -0.53352  -0.51212  -0.49492  -0.48363  -0.47631
 Alpha  occ. eigenvalues --   -0.45562  -0.44102  -0.43789  -0.42972  -0.34341
 Alpha  occ. eigenvalues --   -0.32095  -0.25016
 Alpha virt. eigenvalues --    0.08074   0.09693   0.13137   0.13776   0.14844
 Alpha virt. eigenvalues --    0.16430   0.17097   0.17983   0.18126   0.20355
 Alpha virt. eigenvalues --    0.20699   0.21344   0.21986   0.23237   0.24441
 Alpha virt. eigenvalues --    0.26253   0.26305   0.27630   0.29194   0.30701
 Alpha virt. eigenvalues --    0.31075   0.33259   0.34205   0.34464   0.36024
 Alpha virt. eigenvalues --    0.38204   0.40582   0.41067   0.41341   0.41956
 Alpha virt. eigenvalues --    0.43667   0.44920   0.46006   0.46512   0.47687
 Alpha virt. eigenvalues --    0.49585   0.50555   0.51717   0.52451   0.53400
 Alpha virt. eigenvalues --    0.53823   0.54468   0.55585   0.55977   0.56950
 Alpha virt. eigenvalues --    0.57949   0.58071   0.58747   0.59855   0.60340
 Alpha virt. eigenvalues --    0.61896   0.62644   0.64767   0.64936   0.66886
 Alpha virt. eigenvalues --    0.68705   0.69610   0.71395   0.74438   0.74993
 Alpha virt. eigenvalues --    0.77206   0.77850   0.83007   0.84801   0.85713
 Alpha virt. eigenvalues --    0.88345   0.91872   0.93557   0.94464   0.96365
 Alpha virt. eigenvalues --    0.96889   0.99490   1.03374   1.04245   1.07181
 Alpha virt. eigenvalues --    1.08096   1.09524   1.10669   1.13420   1.14380
 Alpha virt. eigenvalues --    1.17294   1.24103   1.25505   1.27427   1.30383
 Alpha virt. eigenvalues --    1.33200   1.33675   1.38777   1.39060   1.40478
 Alpha virt. eigenvalues --    1.41299   1.42826   1.46231   1.47984   1.49746
 Alpha virt. eigenvalues --    1.49991   1.55740   1.57281   1.59203   1.59967
 Alpha virt. eigenvalues --    1.61489   1.62058   1.63241   1.64177   1.64916
 Alpha virt. eigenvalues --    1.65441   1.66200   1.66771   1.68879   1.71600
 Alpha virt. eigenvalues --    1.73647   1.73885   1.76820   1.79734   1.80996
 Alpha virt. eigenvalues --    1.82835   1.85576   1.87050   1.88749   1.92303
 Alpha virt. eigenvalues --    1.94323   1.96844   1.97979   2.00847   2.01886
 Alpha virt. eigenvalues --    2.03422   2.03772   2.07960   2.08277   2.10606
 Alpha virt. eigenvalues --    2.11700   2.13375   2.14717   2.16065   2.16544
 Alpha virt. eigenvalues --    2.19416   2.23910   2.26384   2.29404   2.31519
 Alpha virt. eigenvalues --    2.33651   2.35602   2.37770   2.40165   2.41240
 Alpha virt. eigenvalues --    2.43454   2.45778   2.46734   2.47562   2.49484
 Alpha virt. eigenvalues --    2.49937   2.53368   2.56616   2.57239   2.59248
 Alpha virt. eigenvalues --    2.61788   2.63151   2.65877   2.66386   2.68210
 Alpha virt. eigenvalues --    2.68581   2.69345   2.71196   2.74345   2.77078
 Alpha virt. eigenvalues --    2.77822   2.79222   2.81328   2.83182   2.85529
 Alpha virt. eigenvalues --    2.88210   2.90114   2.90870   2.95713   2.99327
 Alpha virt. eigenvalues --    3.02339   3.03372   3.04856   3.05290   3.07482
 Alpha virt. eigenvalues --    3.09007   3.12874   3.13727   3.15250   3.17913
 Alpha virt. eigenvalues --    3.18883   3.19537   3.21911   3.23970   3.25347
 Alpha virt. eigenvalues --    3.26304   3.29687   3.30381   3.32310   3.33673
 Alpha virt. eigenvalues --    3.35750   3.38466   3.39799   3.40744   3.41605
 Alpha virt. eigenvalues --    3.44157   3.45807   3.46793   3.48829   3.50373
 Alpha virt. eigenvalues --    3.52801   3.56228   3.56429   3.57232   3.61975
 Alpha virt. eigenvalues --    3.65823   3.67293   3.68251   3.70948   3.75710
 Alpha virt. eigenvalues --    3.80572   3.83998   3.85926   3.88554   3.90410
 Alpha virt. eigenvalues --    3.91774   3.96337   3.99694   4.03684   4.04158
 Alpha virt. eigenvalues --    4.14898   4.17411   4.19956   4.23626   4.25653
 Alpha virt. eigenvalues --    4.26446   4.32923   4.39558   4.42052   4.42958
 Alpha virt. eigenvalues --    4.45137   4.48112   4.50473   4.53310   4.57182
 Alpha virt. eigenvalues --    4.63853   4.68700   4.70558   4.76902   4.82270
 Alpha virt. eigenvalues --    4.84409   4.88710   4.93531   4.96280   4.97822
 Alpha virt. eigenvalues --    5.03659   5.04416   5.07738   5.08454   5.13884
 Alpha virt. eigenvalues --    5.17526   5.18247   5.21330   5.23930   5.28370
 Alpha virt. eigenvalues --    5.34850   5.36293   5.38703   5.40746   5.47239
 Alpha virt. eigenvalues --    5.52782   5.56328   5.58226   5.73087   5.86499
 Alpha virt. eigenvalues --    5.88468   6.05484   6.20914   6.41773   6.52562
 Alpha virt. eigenvalues --    6.70186   6.81887   6.94784   7.16298   7.21737
 Alpha virt. eigenvalues --   22.46151  22.52590  22.57618  22.93777  23.40743
 Alpha virt. eigenvalues --   32.11730  32.16109  44.05330
          Condensed to atoms (all electrons):
               1          2          3          4          5          6
     1  C    6.320123   0.015315  -0.234658   0.410371   0.005764  -0.000613
     2  C    0.015315   4.625857   0.784718  -0.043009   0.000338  -0.000037
     3  O   -0.234658   0.784718   8.116930   0.004922  -0.000001   0.000000
     4  C    0.410371  -0.043009   0.004922   5.104356  -0.012373   0.003372
     5  C    0.005764   0.000338  -0.000001  -0.012373   4.841314   0.410474
     6  H   -0.000613  -0.000037   0.000000   0.003372   0.410474   0.504972
     7  H    0.000122   0.000121  -0.000002  -0.002708   0.415394  -0.020680
     8  H    0.000710  -0.000007   0.000000  -0.003549   0.415210  -0.020110
     9  N   -0.091857  -0.001279   0.000475   0.048125   0.238824  -0.024255
    10  H    0.002046  -0.000316  -0.000369  -0.009179  -0.021823  -0.004448
    11  H    0.002810   0.000401  -0.000046  -0.011847  -0.020211  -0.004249
    12  H   -0.029140   0.000512  -0.000091   0.430419   0.002122  -0.000308
    13  H   -0.044976  -0.005677  -0.000486   0.432865   0.003434  -0.000223
    14  C    0.240054  -0.052180   0.015663  -0.076189  -0.000390   0.000049
    15  H   -0.070917   0.019516   0.001933  -0.003761   0.000068  -0.000003
    16  H   -0.051612  -0.000127   0.008857   0.001742   0.000033  -0.000001
    17  H   -0.050375  -0.003585   0.003184  -0.008166  -0.000162   0.000009
    18  N   -0.272066   0.450373  -0.139143   0.009286  -0.000509   0.000004
    19  H   -0.006622  -0.020998   0.004874   0.009989   0.000260  -0.000003
    20  H    0.026242  -0.034121   0.007852  -0.003777   0.000010  -0.000001
               7          8          9         10         11         12
     1  C    0.000122   0.000710  -0.091857   0.002046   0.002810  -0.029140
     2  C    0.000121  -0.000007  -0.001279  -0.000316   0.000401   0.000512
     3  O   -0.000002   0.000000   0.000475  -0.000369  -0.000046  -0.000091
     4  C   -0.002708  -0.003549   0.048125  -0.009179  -0.011847   0.430419
     5  C    0.415394   0.415210   0.238824  -0.021823  -0.020211   0.002122
     6  H   -0.020680  -0.020110  -0.024255  -0.004448  -0.004249  -0.000308
     7  H    0.511671  -0.024331  -0.036077  -0.005195   0.005902   0.000235
     8  H   -0.024331   0.509799  -0.033674   0.005829  -0.005878   0.003137
     9  N   -0.036077  -0.033674   6.545508   0.355092   0.357784  -0.048517
    10  H   -0.005195   0.005829   0.355092   0.414827  -0.021998   0.003636
    11  H    0.005902  -0.005878   0.357784  -0.021998   0.410511  -0.001592
    12  H    0.000235   0.003137  -0.048517   0.003636  -0.001592   0.495404
    13  H    0.003263  -0.000355  -0.052745  -0.003863   0.003565  -0.011294
    14  C   -0.000110  -0.000003   0.012726  -0.000927  -0.000027  -0.009726
    15  H    0.000011  -0.000003  -0.001870   0.000029   0.000221   0.001131
    16  H    0.000003   0.000005  -0.001076   0.000035   0.000102   0.000820
    17  H   -0.000012  -0.000014   0.004775   0.000006  -0.000843  -0.000047
    18  N    0.000118  -0.000002  -0.003153   0.007094  -0.000172   0.000576
    19  H   -0.000059   0.000021  -0.001710  -0.000273   0.000015   0.000418
    20  H    0.000009   0.000000  -0.000209  -0.000009   0.000012   0.000015
              13         14         15         16         17         18
     1  C   -0.044976   0.240054  -0.070917  -0.051612  -0.050375  -0.272066
     2  C   -0.005677  -0.052180   0.019516  -0.000127  -0.003585   0.450373
     3  O   -0.000486   0.015663   0.001933   0.008857   0.003184  -0.139143
     4  C    0.432865  -0.076189  -0.003761   0.001742  -0.008166   0.009286
     5  C    0.003434  -0.000390   0.000068   0.000033  -0.000162  -0.000509
     6  H   -0.000223   0.000049  -0.000003  -0.000001   0.000009   0.000004
     7  H    0.003263  -0.000110   0.000011   0.000003  -0.000012   0.000118
     8  H   -0.000355  -0.000003  -0.000003   0.000005  -0.000014  -0.000002
     9  N   -0.052745   0.012726  -0.001870  -0.001076   0.004775  -0.003153
    10  H   -0.003863  -0.000927   0.000029   0.000035   0.000006   0.007094
    11  H    0.003565  -0.000027   0.000221   0.000102  -0.000843  -0.000172
    12  H   -0.011294  -0.009726   0.001131   0.000820  -0.000047   0.000576
    13  H    0.520545   0.006083   0.000668  -0.000105  -0.000618  -0.006873
    14  C    0.006083   4.955687   0.422577   0.405361   0.423564   0.013049
    15  H    0.000668   0.422577   0.571853  -0.021247  -0.030697   0.000268
    16  H   -0.000105   0.405361  -0.021247   0.592445  -0.041547   0.001117
    17  H   -0.000618   0.423564  -0.030697  -0.041547   0.603646  -0.000186
    18  N   -0.006873   0.013049   0.000268   0.001117  -0.000186   6.723645
    19  H    0.003215  -0.000390  -0.000070  -0.000016  -0.000052   0.355182
    20  H    0.000993  -0.000442   0.000009   0.000026  -0.000087   0.353588
              19         20
     1  C   -0.006622   0.026242
     2  C   -0.020998  -0.034121
     3  O    0.004874   0.007852
     4  C    0.009989  -0.003777
     5  C    0.000260   0.000010
     6  H   -0.000003  -0.000001
     7  H   -0.000059   0.000009
     8  H    0.000021   0.000000
     9  N   -0.001710  -0.000209
    10  H   -0.000273  -0.000009
    11  H    0.000015   0.000012
    12  H    0.000418   0.000015
    13  H    0.003215   0.000993
    14  C   -0.000390  -0.000442
    15  H   -0.000070   0.000009
    16  H   -0.000016   0.000026
    17  H   -0.000052  -0.000087
    18  N    0.355182   0.353588
    19  H    0.431101  -0.021838
    20  H   -0.021838   0.423842
 Mulliken charges:
               1
     1  C   -0.170722
     2  C    0.264184
     3  O   -0.574614
     4  C   -0.280890
     5  C   -0.277777
     6  H    0.156053
     7  H    0.152326
     8  H    0.153214
     9  N   -0.266888
    10  H    0.279807
    11  H    0.285539
    12  H    0.162289
    13  H    0.152587
    14  C   -0.354430
    15  H    0.110283
    16  H    0.105185
    17  H    0.101209
    18  N   -0.492198
    19  H    0.246954
    20  H    0.247888
 Sum of Mulliken charges =  -0.00000
 Mulliken charges with hydrogens summed into heavy atoms:
               1
     1  C   -0.170722
     2  C    0.264184
     3  O   -0.574614
     4  C    0.033986
     5  C    0.183817
     9  N    0.298457
    14  C   -0.037752
    18  N    0.002644
 APT charges:
               1
     1  C    0.103954
     2  C   -0.427027
     3  O   -0.145983
     4  C   -0.782717
     5  C   -1.321326
     6  H    0.649465
     7  H    0.336445
     8  H    0.448024
     9  N   -0.453460
    10  H    0.365489
    11  H    0.507988
    12  H    0.446382
    13  H    0.328191
    14  C   -1.302174
    15  H    0.355942
    16  H    0.439878
    17  H    0.295097
    18  N   -0.991048
    19  H    0.369333
    20  H    0.777546
 Sum of APT charges =  -0.00000
 APT charges with hydrogens summed into heavy atoms:
               1
     1  C    0.103954
     2  C   -0.427027
     3  O   -0.145983
     4  C   -0.008144
     5  C    0.112607
     9  N    0.420017
    14  C   -0.211257
    18  N    0.155832
 Electronic spatial extent (au):  <R**2>=           1311.5617
 Charge=             -0.0000 electrons
 Dipole moment (field-independent basis, Debye):
    X=            -12.3226    Y=             -1.6402    Z=              0.6367  Tot=             12.4476
 Quadrupole moment (field-independent basis, Debye-Ang):
   XX=            -55.1324   YY=            -45.6667   ZZ=            -49.6265
   XY=             -1.9574   XZ=              6.6540   YZ=             -3.2671
 Traceless Quadrupole moment (field-independent basis, Debye-Ang):
   XX=             -4.9906   YY=              4.4751   ZZ=              0.5154
   XY=             -1.9574   XZ=              6.6540   YZ=             -3.2671
 Octapole moment (field-independent basis, Debye-Ang**2):
  XXX=           -100.0445  YYY=            -20.7954  ZZZ=             -7.2958  XYY=             -2.4069
  XXY=             -6.5385  XXZ=              4.9735  XZZ=            -12.7564  YZZ=             -3.2247
  YYZ=              5.2666  XYZ=             -2.5554
 Hexadecapole moment (field-independent basis, Debye-Ang**3):
 XXXX=          -1170.5401 YYYY=           -424.4453 ZZZZ=           -132.5411 XXXY=             -6.7384
 XXXZ=             53.1406 YYYX=            -37.0177 YYYZ=            -14.8298 ZZZX=              8.9711
 ZZZY=             -6.1588 XXYY=           -236.5004 XXZZ=           -208.2228 YYZZ=            -92.4147
 XXYZ=             -3.1366 YYXZ=              5.4342 ZZXY=             -2.1979
 N-N= 3.891254084991D+02 E-N=-1.670825156984D+03  KE= 3.806077531062D+02
  Exact polarizability:   0.000   0.000   0.000   0.000   0.000   0.000
 Approx polarizability: 116.444  -0.006  87.525  -4.933   0.111  77.751
   1 Symmetry operations used in ECPInt.
 ECPInt:  NShTT=    9316 NPrTT=   27240 LenC2=    9027 LenP2D=   20868.
 LDataN:  DoStor=T MaxTD1= 8 Len=  415
 D2PCM: PCM CHGder 2nd derivatives, FixD1E=F FixD2E=F DoIter=F DoCFld=F I1PDM=0
 Calling FoFJK, ICntrl=    100147 FMM=F ISym2X=0 I1Cent= 0 IOpClX= 0 NMat=1 NMatS=1 NMatT=0.
 ***** Axes restored to original set *****
 -------------------------------------------------------------------
 Center     Atomic                   Forces (Hartrees/Bohr)
 Number     Number              X              Y              Z
 -------------------------------------------------------------------
      1        6           0.000000964    0.000000643   -0.000002100
      2        6          -0.000000592    0.000013799   -0.000005563
      3        8          -0.000008740   -0.000004795    0.000007695
      4        6           0.000005860   -0.000000402   -0.000003738
      5        6           0.000003853    0.000003466    0.000000191
      6        1          -0.000000468    0.000002597   -0.000011005
      7        1          -0.000002362    0.000003367   -0.000010759
      8        1          -0.000000127    0.000000050   -0.000008874
      9        7          -0.000003673    0.000006170   -0.000001110
     10        1           0.000003062   -0.000002261   -0.000006152
     11        1           0.000004095    0.000002932   -0.000002798
     12        1          -0.000005672    0.000002555    0.000003767
     13        1          -0.000009997    0.000004166   -0.000001611
     14        6           0.000006785   -0.000004402    0.000007878
     15        1          -0.000002536    0.000002678    0.000004954
     16        1          -0.000002467   -0.000002747    0.000008575
     17        1           0.000005218   -0.000000903    0.000009130
     18        7           0.000010164    0.000013861    0.000011450
     19        1          -0.000006066   -0.000018539   -0.000001461
     20        1           0.000002696   -0.000022238    0.000001532
 -------------------------------------------------------------------
 Cartesian Forces:  Max     0.000022238 RMS     0.000006819
 FormGI is forming the generalized inverse of G from B-inverse, IUseBI=4.

 GradGradGradGradGradGradGradGradGradGradGradGradGradGradGradGradGradGrad
 Berny optimization.
 Internal  Forces:  Max     0.000031426 RMS     0.000007071
 Search for a saddle point.
 Step number   1 out of a maximum of   70
 All quantities printed in internal units (Hartrees-Bohrs-Radians)
 Swapping is turned off.
 Second derivative matrix not updated -- analytic derivatives used.
 ITU=  0
     Eigenvalues ---   -0.03515   0.00075   0.00114   0.00140   0.00583
     Eigenvalues ---    0.00787   0.00995   0.01376   0.01523   0.02057
     Eigenvalues ---    0.03329   0.04540   0.04665   0.04683   0.04753
     Eigenvalues ---    0.04852   0.05702   0.05781   0.05866   0.08742
     Eigenvalues ---    0.08876   0.09575   0.10531   0.11779   0.12050
     Eigenvalues ---    0.12815   0.13325   0.14515   0.14958   0.17015
     Eigenvalues ---    0.18103   0.18880   0.19984   0.20644   0.25243
     Eigenvalues ---    0.28794   0.31998   0.32916   0.33639   0.34157
     Eigenvalues ---    0.34435   0.34474   0.34708   0.35073   0.35213
     Eigenvalues ---    0.36423   0.38469   0.43710   0.45288   0.45417
     Eigenvalues ---    0.46613   0.47433   0.48975   0.70846
 Eigenvectors required to have negative eigenvalues:
                          R6        A11       R2        A10       D7
   1                   -0.88083   0.16485   0.16298   0.15975   0.15808
                          D10       D9        D6        R1        A9
   1                    0.15713  -0.13469  -0.13374  -0.10277  -0.07480
 RFO step:  Lambda0=2.247948806D-10 Lambda=-4.13551086D-08.
 Linear search not attempted -- option 19 set.
 Iteration  1 RMS(Cart)=  0.00055299 RMS(Int)=  0.00000025
 Iteration  2 RMS(Cart)=  0.00000026 RMS(Int)=  0.00000003
 Variable       Old X    -DE/DX   Delta X   Delta X   Delta X     New X
                                 (Linear)    (Quad)   (Total)
    R1        2.69405   0.00001   0.00000  -0.00001  -0.00001   2.69404
    R2        2.64832   0.00000   0.00000   0.00002   0.00002   2.64834
    R3        2.84966  -0.00000   0.00000  -0.00000  -0.00000   2.84966
    R4        2.35503  -0.00001   0.00000   0.00001   0.00001   2.35504
    R5        2.63912   0.00002   0.00000  -0.00004  -0.00004   2.63908
    R6        3.46386   0.00000   0.00000  -0.00020  -0.00020   3.46366
    R7        2.05358   0.00001   0.00000   0.00002   0.00002   2.05360
    R8        2.05295  -0.00000   0.00000  -0.00000  -0.00000   2.05295
    R9        2.05896   0.00000   0.00000   0.00001   0.00001   2.05897
   R10        2.05748  -0.00000   0.00000  -0.00001  -0.00001   2.05747
   R11        2.05721  -0.00000   0.00000  -0.00001  -0.00001   2.05720
   R12        2.76388  -0.00000   0.00000   0.00000   0.00000   2.76388
   R13        1.91577   0.00001   0.00000   0.00001   0.00001   1.91579
   R14        1.91493   0.00000   0.00000   0.00000   0.00000   1.91493
   R15        2.06506   0.00000   0.00000   0.00001   0.00001   2.06508
   R16        2.06573  -0.00000   0.00000   0.00001   0.00001   2.06574
   R17        2.07305  -0.00000   0.00000  -0.00002  -0.00002   2.07303
   R18        1.90125   0.00001   0.00000  -0.00000  -0.00000   1.90125
   R19        1.90352   0.00002   0.00000   0.00001   0.00001   1.90353
    A1        2.13226   0.00002   0.00000   0.00011   0.00011   2.13237
    A2        2.04874  -0.00001   0.00000  -0.00006  -0.00006   2.04869
    A3        2.09089  -0.00001   0.00000  -0.00002  -0.00002   2.09087
    A4        2.15354  -0.00001   0.00000  -0.00007  -0.00007   2.15347
    A5        2.08490   0.00003   0.00000   0.00011   0.00011   2.08501
    A6        2.04386  -0.00002   0.00000  -0.00004  -0.00004   2.04382
    A7        1.98104   0.00000   0.00000   0.00004   0.00004   1.98107
    A8        2.03819  -0.00000   0.00000  -0.00002  -0.00002   2.03817
    A9        2.08953   0.00000   0.00000   0.00002   0.00002   2.08955
   A10        1.67269  -0.00000   0.00000  -0.00000  -0.00000   1.67269
   A11        1.65861  -0.00000   0.00000   0.00004   0.00004   1.65865
   A12        1.93991  -0.00000   0.00000  -0.00006  -0.00006   1.93985
   A13        1.90576  -0.00000   0.00000  -0.00001  -0.00001   1.90576
   A14        1.90654  -0.00000   0.00000  -0.00000  -0.00000   1.90654
   A15        1.95052   0.00000   0.00000  -0.00001  -0.00001   1.95052
   A16        1.90096   0.00000   0.00000   0.00002   0.00002   1.90098
   A17        1.89954  -0.00000   0.00000  -0.00000  -0.00000   1.89954
   A18        1.89992   0.00000   0.00000   0.00000   0.00000   1.89993
   A19        2.00123  -0.00000   0.00000  -0.00003  -0.00003   2.00120
   A20        1.82397   0.00000   0.00000   0.00007   0.00007   1.82403
   A21        1.84198   0.00000   0.00000  -0.00001  -0.00001   1.84197
   A22        1.95472  -0.00000   0.00000  -0.00001  -0.00001   1.95470
   A23        1.95390   0.00000   0.00000   0.00001   0.00001   1.95391
   A24        1.87784  -0.00000   0.00000  -0.00001  -0.00001   1.87783
   A25        1.92768   0.00000   0.00000  -0.00000  -0.00000   1.92767
   A26        1.95418  -0.00000   0.00000   0.00006   0.00006   1.95423
   A27        1.97489  -0.00000   0.00000  -0.00002  -0.00002   1.97487
   A28        1.87635  -0.00000   0.00000  -0.00002  -0.00002   1.87633
   A29        1.86944  -0.00000   0.00000   0.00000   0.00000   1.86945
   A30        1.85604   0.00000   0.00000  -0.00002  -0.00002   1.85602
   A31        2.06746   0.00002   0.00000   0.00032   0.00032   2.06777
   A32        1.96791   0.00001   0.00000   0.00024   0.00024   1.96814
   A33        1.97353  -0.00002   0.00000   0.00009   0.00009   1.97362
    D1        3.07880  -0.00000   0.00000  -0.00005  -0.00005   3.07875
    D2       -0.01621  -0.00000   0.00000  -0.00012  -0.00012  -0.01633
    D3        0.09860  -0.00000   0.00000  -0.00029  -0.00029   0.09830
    D4       -2.99641  -0.00000   0.00000  -0.00036  -0.00036  -2.99678
    D5       -1.45898  -0.00000   0.00000  -0.00028  -0.00028  -1.45925
    D6        2.90251  -0.00000   0.00000  -0.00029  -0.00029   2.90222
    D7        0.47839  -0.00000   0.00000  -0.00018  -0.00018   0.47821
    D8        1.51744  -0.00000   0.00000  -0.00003  -0.00003   1.51741
    D9       -0.40426  -0.00000   0.00000  -0.00004  -0.00004  -0.40430
   D10       -2.82838  -0.00000   0.00000   0.00007   0.00007  -2.82831
   D11       -3.03000   0.00000   0.00000  -0.00101  -0.00101  -3.03100
   D12       -0.93957   0.00000   0.00000  -0.00099  -0.00099  -0.94056
   D13        1.15768   0.00000   0.00000  -0.00099  -0.00099   1.15670
   D14        0.26899  -0.00000   0.00000  -0.00126  -0.00126   0.26774
   D15        2.35942  -0.00000   0.00000  -0.00124  -0.00124   2.35817
   D16       -1.82651  -0.00000   0.00000  -0.00124  -0.00124  -1.82775
   D17       -0.45653   0.00001   0.00000   0.00047   0.00047  -0.45606
   D18       -2.81783  -0.00001   0.00000  -0.00032  -0.00032  -2.81815
   D19        2.72875   0.00000   0.00000   0.00040   0.00040   2.72916
   D20        0.36745  -0.00001   0.00000  -0.00039  -0.00039   0.36707
   D21        3.13276   0.00000   0.00000   0.00039   0.00039   3.13314
   D22        0.98615   0.00000   0.00000   0.00038   0.00038   0.98652
   D23       -0.99178   0.00000   0.00000   0.00037   0.00037  -0.99141
   D24       -1.01115   0.00000   0.00000   0.00038   0.00038  -1.01077
   D25        3.12543   0.00000   0.00000   0.00037   0.00037   3.12580
   D26        1.14751   0.00000   0.00000   0.00036   0.00036   1.14787
   D27        0.94197  -0.00000   0.00000   0.00032   0.00032   0.94230
   D28       -1.20464  -0.00000   0.00000   0.00031   0.00031  -1.20432
   D29        3.10063  -0.00000   0.00000   0.00030   0.00030   3.10093
   D30       -3.12408   0.00000   0.00000   0.00002   0.00002  -3.12406
   D31       -1.04951   0.00000   0.00000   0.00007   0.00007  -1.04944
   D32        1.06143   0.00000   0.00000   0.00005   0.00005   1.06148
   D33       -1.01796  -0.00000   0.00000   0.00000   0.00000  -1.01796
   D34        1.05661  -0.00000   0.00000   0.00005   0.00005   1.05666
   D35       -3.11564  -0.00000   0.00000   0.00004   0.00004  -3.11561
   D36        1.05176   0.00000   0.00000   0.00002   0.00002   1.05178
   D37        3.12633   0.00000   0.00000   0.00007   0.00007   3.12640
   D38       -1.04592   0.00000   0.00000   0.00005   0.00005  -1.04587
         Item               Value     Threshold  Converged?
 Maximum Force            0.000031     0.000450     YES
 RMS     Force            0.000007     0.000300     YES
 Maximum Displacement     0.001900     0.001800     NO 
 RMS     Displacement     0.000553     0.001200     YES
 Predicted change in Energy=-2.056516D-08
 GradGradGradGradGradGradGradGradGradGradGradGradGradGradGradGradGradGrad

                          Input orientation:                          
 ---------------------------------------------------------------------
 Center     Atomic      Atomic             Coordinates (Angstroms)
 Number     Number       Type             X           Y           Z
 ---------------------------------------------------------------------
      1          6           0        0.596186    0.574390    0.330349
      2          6           0        1.518907   -0.457645   -0.010085
      3          8           0        2.651995   -0.236959   -0.479671
      4          6           0       -0.699089    0.296415    0.787551
      5          6           0       -3.258244   -0.316971   -0.112519
      6          1           0       -3.927386   -0.509648   -0.950533
      7          1           0       -3.227540   -1.195224    0.530240
      8          1           0       -3.636106    0.527388    0.461394
      9          7           0       -1.900033   -0.013101   -0.562045
     10          1           0       -1.495541   -0.777030   -1.091733
     11          1           0       -1.870662    0.814158   -1.146539
     12          1           0       -1.247220    1.120430    1.236449
     13          1           0       -0.898028   -0.636238    1.307932
     14          6           0        0.980346    1.990563   -0.017313
     15          1           0        0.251315    2.695001    0.390699
     16          1           0        1.959615    2.259675    0.387126
     17          1           0        1.032827    2.170231   -1.098225
     18          7           0        1.137643   -1.793756    0.130541
     19          1           0        0.428814   -2.021643    0.807195
     20          1           0        1.923881   -2.422955    0.155126
 ---------------------------------------------------------------------
                    Distance matrix (angstroms):
                    1          2          3          4          5
     1  C    0.000000
     2  C    1.425624   0.000000
     3  O    2.353883   1.246235   0.000000
     4  C    1.401443   2.474739   3.622168   0.000000
     5  C    3.980865   4.780319   5.922172   2.781303   0.000000
     6  H    4.824780   5.527137   6.601842   3.754008   1.089561
     7  H    4.218101   4.833707   6.042112   2.946907   1.088766
     8  H    4.234582   5.269415   6.403908   2.964085   1.088622
     9  N    2.715257   3.491622   4.558273   1.832888   1.462583
    10  H    2.867748   3.218518   4.227096   2.306151   2.068245
    11  H    2.885139   3.794494   4.690840   2.319773   2.067374
    12  H    2.125400   3.419886   4.471180   1.086719   2.816035
    13  H    2.157305   2.758738   3.994697   1.086377   2.773126
    14  C    1.507976   2.506755   2.823126   2.517627   4.826947
    15  H    2.149318   3.421490   3.888084   2.610359   4.652119
    16  H    2.168489   2.781335   2.732015   3.329179   5.840787
    17  H    2.185906   2.885490   2.966290   3.172833   5.056786
    18  N    2.437460   1.396542   2.255934   2.859031   4.643683
    19  H    2.644766   2.074208   3.127883   2.577973   4.164874
    20  H    3.282918   2.013391   2.389915   3.830784   5.600109
                    6          7          8          9         10
     6  H    0.000000
     7  H    1.775525   0.000000
     8  H    1.775901   1.771739   0.000000
     9  N    2.123121   2.086331   2.086505   0.000000
    10  H    2.450572   2.409462   2.948853   1.013791   0.000000
    11  H    2.453772   2.947935   2.405094   1.013338   1.635726
    12  H    3.824046   3.127723   2.580540   2.223879   3.013710
    13  H    3.780700   2.518709   3.093174   2.211137   2.476941
    14  C    5.586393   5.306162   4.866382   3.550773   3.865743
    15  H    5.434172   5.220705   4.451470   3.587455   4.159821
    16  H    6.641932   6.234050   5.858193   4.578571   4.831842
    17  H    5.639794   5.668237   5.189439   3.695415   3.883173
    18  N    5.335932   4.424117   5.318444   3.588576   3.075929
    19  H    4.934796   3.758802   4.810479   3.366391   2.976261
    20  H    6.254642   5.308970   6.301728   4.576467   3.994517
                   11         12         13         14         15
    11  H    0.000000
    12  H    2.482159   0.000000
    13  H    3.012323   1.792464   0.000000
    14  C    3.284407   2.700204   3.490651   0.000000
    15  H    3.225439   2.332418   3.641354   1.092791   0.000000
    16  H    4.371803   3.507566   4.171369   1.093142   1.762898
    17  H    3.204921   3.428032   4.170618   1.096999   1.761545
    18  N    4.181153   3.924676   2.621078   3.790472   4.582815
    19  H    4.140825   3.586917   1.982573   4.133014   4.738323
    20  H    5.154783   4.876547   3.533340   4.516540   5.389475
                   16         17         18         19         20
    16  H    0.000000
    17  H    1.753055   0.000000
    18  N    4.143884   4.151391   0.000000
    19  H    4.566125   4.644057   1.006097   0.000000
    20  H    4.688509   4.843781   1.007306   1.679724   0.000000
 Stoichiometry    C5H12N2O
 Framework group  C1[X(C5H12N2O)]
 Deg. of freedom    54
 Full point group                 C1      NOp   1
 Largest Abelian subgroup         C1      NOp   1
 Largest concise Abelian subgroup C1      NOp   1
                         Standard orientation:                         
 ---------------------------------------------------------------------
 Center     Atomic      Atomic             Coordinates (Angstroms)
 Number     Number       Type             X           Y           Z
 ---------------------------------------------------------------------
      1          6           0        0.596087    0.574448    0.330362
      2          6           0        1.518934   -0.457473   -0.010071
      3          8           0        2.651995   -0.236648   -0.479658
      4          6           0       -0.699154    0.296314    0.787565
      5          6           0       -3.258233   -0.317388   -0.112505
      6          1           0       -3.927352   -0.510147   -0.950519
      7          1           0       -3.227421   -1.195637    0.530254
      8          1           0       -3.636200    0.526925    0.461407
      9          7           0       -1.900060   -0.013350   -0.562031
     10          1           0       -1.495473   -0.777230   -1.091720
     11          1           0       -1.870791    0.813912   -1.146525
     12          1           0       -1.247387    1.120261    1.236462
     13          1           0       -0.897978   -0.636364    1.307945
     14          6           0        0.980072    1.990668   -0.017299
     15          1           0        0.250955    2.695016    0.390712
     16          1           0        1.959308    2.259901    0.387139
     17          1           0        1.032531    2.170342   -1.098212
     18          7           0        1.137835   -1.793631    0.130555
     19          1           0        0.429034   -2.021606    0.807209
     20          1           0        1.924151   -2.422733    0.155139
 ---------------------------------------------------------------------
 Rotational constants (GHZ):           3.1399951           1.1483862           0.9225343
 Standard basis: def2TZVP (5D, 7F)
 There are   360 symmetry adapted cartesian basis functions of A   symmetry.
 There are   320 symmetry adapted basis functions of A   symmetry.
   320 basis functions,   504 primitive gaussians,   360 cartesian basis functions
    32 alpha electrons       32 beta electrons
       nuclear repulsion energy       389.1326620223 Hartrees.
 NAtoms=   20 NActive=   20 NUniq=   20 SFac= 1.00D+00 NAtFMM=   60 NAOKFM=F Big=F
 Integral buffers will be    131072 words long.
 Raffenetti 2 integral format.
 Two-electron integral symmetry is turned on.
 Nuclear repulsion after empirical dispersion term =      389.1213979914 Hartrees.
 ------------------------------------------------------------------------------
 Polarizable Continuum Model (PCM)
 =================================
 Model                : PCM.
 Atomic radii         : UFF (Universal Force Field).
 Polarization charges : Total charges.
 Charge compensation  : None.
 Solution method      : Matrix inversion.
 Cavity type          : Scaled VdW (van der Waals Surface) (Alpha=1.100).
 Cavity algorithm     : GePol (No added spheres)
                        Default sphere list used, NSphG=   20.
                        Lebedev-Laikov grids with approx.  5.0 points / Ang**2.
                        Smoothing algorithm: York/Karplus (Gamma=1.0000).
                        Polarization charges: spherical gaussians, with
                                              point-specific exponents (IZeta= 3).
                        Self-potential: point-specific (ISelfS= 7).
                        Self-field    : sphere-specific E.n sum rule (ISelfD= 2).
 1st derivatives      : Analytical E(r).r(x)/FMM algorithm (CHGder, D1EAlg=3).
                        Cavity 1st derivative terms included.
 Solvent              : Water, Eps=  78.355300 Eps(inf)=   1.777849
 ------------------------------------------------------------------------------
 Spheres list:
 ISph  on   Nord     Re0    Alpha      Xe            Ye            Ze
    1   C      1    1.9255  1.100      0.596087      0.574448      0.330362
    2   C      2    1.9255  1.100      1.518934     -0.457473     -0.010071
    3   O      3    1.7500  1.100      2.651995     -0.236648     -0.479658
    4   C      4    1.9255  1.100     -0.699154      0.296314      0.787565
    5   C      5    1.9255  1.100     -3.258233     -0.317388     -0.112505
    6   H      6    1.4430  1.100     -3.927352     -0.510147     -0.950519
    7   H      7    1.4430  1.100     -3.227421     -1.195637      0.530254
    8   H      8    1.4430  1.100     -3.636200      0.526925      0.461407
    9   N      9    1.8300  1.100     -1.900060     -0.013350     -0.562031
   10   H     10    1.4430  1.100     -1.495473     -0.777230     -1.091720
   11   H     11    1.4430  1.100     -1.870791      0.813912     -1.146525
   12   H     12    1.4430  1.100     -1.247387      1.120261      1.236462
   13   H     13    1.4430  1.100     -0.897978     -0.636364      1.307945
   14   C     14    1.9255  1.100      0.980072      1.990668     -0.017299
   15   H     15    1.4430  1.100      0.250955      2.695016      0.390712
   16   H     16    1.4430  1.100      1.959308      2.259901      0.387139
   17   H     17    1.4430  1.100      1.032531      2.170342     -1.098212
   18   N     18    1.8300  1.100      1.137835     -1.793631      0.130555
   19   H     19    1.4430  1.100      0.429034     -2.021606      0.807209
   20   H     20    1.4430  1.100      1.924151     -2.422733      0.155139
 ------------------------------------------------------------------------------
 One-electron integrals computed using PRISM.
   1 Symmetry operations used in ECPInt.
 ECPInt:  NShTT=    9316 NPrTT=   27240 LenC2=    9027 LenP2D=   20868.
 LDataN:  DoStor=T MaxTD1= 6 Len=  172
 NBasis=   320 RedAO= T EigKep=  1.16D-04  NBF=   320
 NBsUse=   320 1.00D-06 EigRej= -1.00D+00 NBFU=   320
 Initial guess from the checkpoint file:  "/beegfs/scratch/user/q/tla25/Gau-8866.chk"
 B after Tr=    -0.000000   -0.000000    0.000000
         Rot=    1.000000   -0.000000   -0.000009   -0.000073 Ang=  -0.01 deg.
 Requested convergence on RMS density matrix=1.00D-08 within 128 cycles.
 Requested convergence on MAX density matrix=1.00D-06.
 Requested convergence on             energy=1.00D-06.
 No special actions if energy rises.
 Inv3:  Mode=1 IEnd=     7216803.
 Iteration    1 A*A^-1 deviation from unit magnitude is 5.00D-15 for   1530.
 Iteration    1 A*A^-1 deviation from orthogonality  is 3.83D-15 for   1510   1421.
 Iteration    1 A^-1*A deviation from unit magnitude is 5.00D-15 for   1530.
 Iteration    1 A^-1*A deviation from orthogonality  is 1.16D-14 for   1306   1272.
 Error on total polarization charges =  0.01218
 SCF Done:  E(RwB97XD) =  -382.486159217     A.U. after    7 cycles
            NFock=  7  Conv=0.79D-08     -V/T= 2.0049
   1 Symmetry operations used in ECPInt.
 ECPInt:  NShTT=    9316 NPrTT=   27240 LenC2=    9027 LenP2D=   20868.
 LDataN:  DoStor=T MaxTD1= 7 Len=  274
 D1PCM: PCM CHGder 1st derivatives, ID1Alg=3 FixD1E=F DoIter=F DoCFld=F I1PDM=0.
 Calling FoFJK, ICntrl=      2127 FMM=F ISym2X=0 I1Cent= 0 IOpClX= 0 NMat=1 NMatS=1 NMatT=0.
 ***** Axes restored to original set *****
 -------------------------------------------------------------------
 Center     Atomic                   Forces (Hartrees/Bohr)
 Number     Number              X              Y              Z
 -------------------------------------------------------------------
      1        6          -0.000000415   -0.000001259    0.000003099
      2        6          -0.000000111   -0.000001206    0.000004015
      3        8           0.000000917   -0.000001639    0.000006709
      4        6          -0.000001497   -0.000000674   -0.000000199
      5        6           0.000000037    0.000002228   -0.000007117
      6        1           0.000001909    0.000003761   -0.000008837
      7        1          -0.000002077    0.000001412   -0.000008032
      8        1          -0.000000658    0.000001852   -0.000006835
      9        7           0.000001441    0.000001699   -0.000003497
     10        1           0.000002018    0.000002250   -0.000003451
     11        1           0.000003322    0.000002645   -0.000002379
     12        1          -0.000002101   -0.000000884   -0.000000580
     13        1          -0.000003512   -0.000001439   -0.000001998
     14        6           0.000001509   -0.000001240    0.000005700
     15        1           0.000001075   -0.000000976    0.000004907
     16        1           0.000000858   -0.000002003    0.000008592
     17        1           0.000004172    0.000000371    0.000006346
     18        7          -0.000001559   -0.000001255    0.000001519
     19        1          -0.000003312   -0.000001638   -0.000000426
     20        1          -0.000002017   -0.000002005    0.000002465
 -------------------------------------------------------------------
 Cartesian Forces:  Max     0.000008837 RMS     0.000003347

 GradGradGradGradGradGradGradGradGradGradGradGradGradGradGradGradGradGrad
 Berny optimization.
 FormGI is forming the generalized inverse of G from B-inverse, IUseBI=4.
 Internal  Forces:  Max     0.000000386 RMS     0.000000104
 Search for a saddle point.
 Step number   2 out of a maximum of   70
 All quantities printed in internal units (Hartrees-Bohrs-Radians)
 Swapping is turned off.
 Update second derivatives using D2CorX and points    1    2
 ITU=  0  0
     Eigenvalues ---   -0.03515   0.00073   0.00114   0.00140   0.00583
     Eigenvalues ---    0.00787   0.00995   0.01369   0.01525   0.02057
     Eigenvalues ---    0.03329   0.04539   0.04666   0.04683   0.04753
     Eigenvalues ---    0.04852   0.05702   0.05781   0.05866   0.08742
     Eigenvalues ---    0.08876   0.09575   0.10531   0.11779   0.12049
     Eigenvalues ---    0.12815   0.13325   0.14515   0.14958   0.17015
     Eigenvalues ---    0.18103   0.18880   0.19983   0.20644   0.25243
     Eigenvalues ---    0.28794   0.31998   0.32916   0.33639   0.34157
     Eigenvalues ---    0.34435   0.34474   0.34708   0.35073   0.35213
     Eigenvalues ---    0.36423   0.38469   0.43710   0.45288   0.45417
     Eigenvalues ---    0.46613   0.47433   0.48975   0.70846
 Eigenvectors required to have negative eigenvalues:
                          R6        A11       R2        A10       D7
   1                   -0.88083   0.16485   0.16297   0.15974   0.15807
                          D10       D9        D6        R1        A9
   1                    0.15709  -0.13470  -0.13372  -0.10277  -0.07481
 RFO step:  Lambda0=1.926583892D-14 Lambda= 0.00000000D+00.
 Linear search not attempted -- option 19 set.
 Iteration  1 RMS(Cart)=  0.00004679 RMS(Int)=  0.00000000
 Iteration  2 RMS(Cart)=  0.00000000 RMS(Int)=  0.00000000
 Variable       Old X    -DE/DX   Delta X   Delta X   Delta X     New X
                                 (Linear)    (Quad)   (Total)
    R1        2.69404   0.00000   0.00000  -0.00000  -0.00000   2.69404
    R2        2.64834  -0.00000   0.00000   0.00000   0.00000   2.64834
    R3        2.84966  -0.00000   0.00000  -0.00000  -0.00000   2.84966
    R4        2.35504   0.00000   0.00000  -0.00000  -0.00000   2.35504
    R5        2.63908   0.00000   0.00000   0.00000   0.00000   2.63908
    R6        3.46366  -0.00000   0.00000  -0.00000  -0.00000   3.46365
    R7        2.05360   0.00000   0.00000   0.00000   0.00000   2.05360
    R8        2.05295   0.00000   0.00000   0.00000   0.00000   2.05295
    R9        2.05897  -0.00000   0.00000  -0.00000  -0.00000   2.05897
   R10        2.05747   0.00000   0.00000   0.00000   0.00000   2.05747
   R11        2.05720   0.00000   0.00000   0.00000   0.00000   2.05720
   R12        2.76388   0.00000   0.00000   0.00000   0.00000   2.76388
   R13        1.91579  -0.00000   0.00000  -0.00000  -0.00000   1.91579
   R14        1.91493   0.00000   0.00000   0.00000   0.00000   1.91493
   R15        2.06508  -0.00000   0.00000   0.00000   0.00000   2.06508
   R16        2.06574   0.00000   0.00000   0.00000   0.00000   2.06574
   R17        2.07303  -0.00000   0.00000  -0.00000  -0.00000   2.07303
   R18        1.90125   0.00000   0.00000   0.00000   0.00000   1.90125
   R19        1.90353   0.00000   0.00000   0.00000   0.00000   1.90353
    A1        2.13237   0.00000   0.00000   0.00000   0.00000   2.13238
    A2        2.04869   0.00000   0.00000  -0.00000  -0.00000   2.04869
    A3        2.09087  -0.00000   0.00000  -0.00000  -0.00000   2.09086
    A4        2.15347   0.00000   0.00000  -0.00000  -0.00000   2.15347
    A5        2.08501  -0.00000   0.00000   0.00000   0.00000   2.08501
    A6        2.04382  -0.00000   0.00000   0.00000   0.00000   2.04382
    A7        1.98107  -0.00000   0.00000  -0.00000  -0.00000   1.98107
    A8        2.03817   0.00000   0.00000   0.00000   0.00000   2.03817
    A9        2.08955   0.00000   0.00000   0.00000   0.00000   2.08955
   A10        1.67269  -0.00000   0.00000  -0.00000  -0.00000   1.67268
   A11        1.65865   0.00000   0.00000   0.00000   0.00000   1.65865
   A12        1.93985   0.00000   0.00000   0.00000   0.00000   1.93985
   A13        1.90576  -0.00000   0.00000   0.00000   0.00000   1.90576
   A14        1.90654   0.00000   0.00000   0.00000   0.00000   1.90654
   A15        1.95052   0.00000   0.00000   0.00000   0.00000   1.95052
   A16        1.90098  -0.00000   0.00000  -0.00000  -0.00000   1.90098
   A17        1.89954   0.00000   0.00000   0.00000   0.00000   1.89954
   A18        1.89993  -0.00000   0.00000  -0.00000  -0.00000   1.89993
   A19        2.00120  -0.00000   0.00000  -0.00000  -0.00000   2.00120
   A20        1.82403  -0.00000   0.00000   0.00000   0.00000   1.82404
   A21        1.84197   0.00000   0.00000  -0.00000  -0.00000   1.84197
   A22        1.95470   0.00000   0.00000   0.00000   0.00000   1.95470
   A23        1.95391  -0.00000   0.00000  -0.00000  -0.00000   1.95391
   A24        1.87783   0.00000   0.00000   0.00000   0.00000   1.87783
   A25        1.92767  -0.00000   0.00000  -0.00000  -0.00000   1.92767
   A26        1.95423   0.00000   0.00000   0.00000   0.00000   1.95424
   A27        1.97487   0.00000   0.00000  -0.00000  -0.00000   1.97487
   A28        1.87633  -0.00000   0.00000  -0.00000  -0.00000   1.87633
   A29        1.86945  -0.00000   0.00000  -0.00000  -0.00000   1.86945
   A30        1.85602  -0.00000   0.00000  -0.00000  -0.00000   1.85602
   A31        2.06777  -0.00000   0.00000  -0.00000  -0.00000   2.06777
   A32        1.96814   0.00000   0.00000  -0.00000  -0.00000   1.96814
   A33        1.97362  -0.00000   0.00000  -0.00000  -0.00000   1.97362
    D1        3.07875  -0.00000   0.00000  -0.00003  -0.00003   3.07873
    D2       -0.01633  -0.00000   0.00000  -0.00003  -0.00003  -0.01636
    D3        0.09830  -0.00000   0.00000  -0.00002  -0.00002   0.09828
    D4       -2.99678  -0.00000   0.00000  -0.00002  -0.00002  -2.99680
    D5       -1.45925  -0.00000   0.00000  -0.00001  -0.00001  -1.45927
    D6        2.90222   0.00000   0.00000  -0.00001  -0.00001   2.90221
    D7        0.47821  -0.00000   0.00000  -0.00001  -0.00001   0.47819
    D8        1.51741  -0.00000   0.00000  -0.00002  -0.00002   1.51739
    D9       -0.40430   0.00000   0.00000  -0.00001  -0.00001  -0.40431
   D10       -2.82831  -0.00000   0.00000  -0.00002  -0.00002  -2.82833
   D11       -3.03100  -0.00000   0.00000  -0.00004  -0.00004  -3.03104
   D12       -0.94056  -0.00000   0.00000  -0.00004  -0.00004  -0.94060
   D13        1.15670   0.00000   0.00000  -0.00004  -0.00004   1.15666
   D14        0.26774  -0.00000   0.00000  -0.00004  -0.00004   0.26770
   D15        2.35817  -0.00000   0.00000  -0.00004  -0.00004   2.35814
   D16       -1.82775   0.00000   0.00000  -0.00003  -0.00003  -1.82779
   D17       -0.45606  -0.00000   0.00000  -0.00001  -0.00001  -0.45607
   D18       -2.81815  -0.00000   0.00000  -0.00001  -0.00001  -2.81816
   D19        2.72916  -0.00000   0.00000  -0.00002  -0.00002   2.72914
   D20        0.36707  -0.00000   0.00000  -0.00001  -0.00001   0.36706
   D21        3.13314   0.00000   0.00000   0.00006   0.00006   3.13321
   D22        0.98652   0.00000   0.00000   0.00006   0.00006   0.98658
   D23       -0.99141   0.00000   0.00000   0.00006   0.00006  -0.99135
   D24       -1.01077   0.00000   0.00000   0.00006   0.00006  -1.01071
   D25        3.12580  -0.00000   0.00000   0.00006   0.00006   3.12586
   D26        1.14787  -0.00000   0.00000   0.00006   0.00006   1.14792
   D27        0.94230   0.00000   0.00000   0.00006   0.00006   0.94236
   D28       -1.20432   0.00000   0.00000   0.00006   0.00006  -1.20426
   D29        3.10093  -0.00000   0.00000   0.00006   0.00006   3.10099
   D30       -3.12406  -0.00000   0.00000   0.00001   0.00001  -3.12405
   D31       -1.04944   0.00000   0.00000   0.00002   0.00002  -1.04942
   D32        1.06148   0.00000   0.00000   0.00002   0.00002   1.06149
   D33       -1.01796   0.00000   0.00000   0.00001   0.00001  -1.01795
   D34        1.05666   0.00000   0.00000   0.00002   0.00002   1.05668
   D35       -3.11561   0.00000   0.00000   0.00002   0.00002  -3.11559
   D36        1.05178  -0.00000   0.00000   0.00001   0.00001   1.05179
   D37        3.12640   0.00000   0.00000   0.00002   0.00002   3.12642
   D38       -1.04587   0.00000   0.00000   0.00002   0.00002  -1.04585
         Item               Value     Threshold  Converged?
 Maximum Force            0.000000     0.000450     YES
 RMS     Force            0.000000     0.000300     YES
 Maximum Displacement     0.000152     0.001800     YES
 RMS     Displacement     0.000047     0.001200     YES
 Predicted change in Energy=-3.698311D-11
 Optimization completed.
    -- Stationary point found.
                           ----------------------------
                           !   Optimized Parameters   !
                           ! (Angstroms and Degrees)  !
 --------------------------                            --------------------------
 ! Name  Definition              Value          Derivative Info.                !
 --------------------------------------------------------------------------------
 ! R1    R(1,2)                  1.4256         -DE/DX =    0.0                 !
 ! R2    R(1,4)                  1.4014         -DE/DX =    0.0                 !
 ! R3    R(1,14)                 1.508          -DE/DX =    0.0                 !
 ! R4    R(2,3)                  1.2462         -DE/DX =    0.0                 !
 ! R5    R(2,18)                 1.3965         -DE/DX =    0.0                 !
[...]
 4,-0.00023631,-0.00022365,0.00009466,0.00030270,-0.00006136,-0.0001051
 5,-0.00012121,-0.00003411,0.00005905,0.00174522,0.00117171,0.00139453,
 -0.07764540,0.06429404,0.04358423,0.00819478,-0.01566519,-0.00912080,-
 0.00024863,0.00080823,-0.00017541,0.09225695,0.00067537,-0.00012963,-0
 .00017482,-0.00042838,0.00038076,0.00010343,0.00024073,-0.00001729,-0.
 00008772,-0.00099691,0.00008965,0.00010204,0.07360468,-0.22227438,-0.1
 1446866,0.00128685,-0.00310222,-0.00099547,0.00744361,-0.01724820,-0.0
 1435887,-0.07620869,0.23139301,0.00088664,-0.00020688,-0.00041598,-0.0
 0068481,0.00053952,0.00007565,0.00042039,-0.00002798,-0.00013116,-0.00
 223934,0.00002476,-0.00048985,0.04709197,-0.11094088,-0.12419541,0.008
 82648,-0.01960183,-0.01144384,-0.00741789,0.01498775,0.01208096,-0.056
 61930,0.12271347,0.12980983,-0.06792731,0.00806449,-0.00397985,0.02799
 945,-0.03096545,-0.01485580,-0.01753676,0.00153962,0.00917196,0.044751
 38,0.02140914,0.05132876,-0.19977728,-0.02167575,0.02581832,-0.0329832
 4,-0.00744270,0.01305721,-0.00428353,-0.00267357,0.00370130,-0.0195901
 4,-0.00402012,0.00775504,0.42934849,-0.01701379,0.00591364,-0.00014353
 ,0.00827865,-0.00790438,-0.00130378,-0.00394748,0.00064127,0.00134022,
 0.02265851,-0.04492130,0.01224178,-0.02081568,-0.10839310,0.00628967,-
 0.00888617,-0.00138131,0.00370667,-0.03412976,-0.00503527,0.00998032,0
 .02888509,0.00976205,-0.00814039,-0.08363972,0.73579100,-0.03504986,0.
 00766003,0.02536454,0.01919919,-0.01883274,-0.00503654,-0.01095606,0.0
 0104210,0.00349614,0.07989822,0.01818766,-0.01135732,0.06255255,0.0144
 5128,-0.10401552,-0.02527300,-0.00535586,0.01497319,0.02295003,0.00329
 782,-0.00612086,0.01979790,0.00614011,-0.00558878,-0.19454913,-0.05704
 611,0.44820789,-0.00082857,0.00088498,0.00312282,-0.00066515,-0.001805
 78,0.00017543,0.00016906,0.00036492,-0.00027282,0.00934280,-0.00927909
 ,-0.00510098,-0.01483278,0.02744869,0.01885813,0.00056956,0.00050720,-
 0.00063070,0.00132736,-0.00032634,-0.00000991,-0.00532307,-0.00271614,
 0.00145705,-0.10529929,0.10325350,0.07771882,0.11694954,0.00056088,-0.
 00026114,0.00019974,-0.00075122,0.00154868,0.00023384,0.00032434,-0.00
 024572,-0.00015659,-0.00209456,-0.00112625,-0.00220771,-0.00583285,0.0
 1074015,0.00661363,0.00008896,0.00012437,0.00000550,0.00005050,0.00043
 951,0.00027144,-0.00280067,0.00073576,0.00122727,0.11727055,-0.2799937
 5,-0.13795431,-0.11829502,0.29026212,0.00048639,0.00098531,0.00191848,
 -0.00106313,-0.00040720,0.00073008,0.00063504,0.00020754,-0.00049427,0
 .00389846,-0.01034370,-0.00795838,0.00060187,-0.00679119,-0.00531099,-
 0.00042947,0.00052845,0.00082802,0.00016609,-0.00031436,-0.00017382,0.
 00170785,0.00063000,-0.00005545,0.09732308,-0.15675964,-0.14783156,-0.
 09124006,0.15104705,0.14964957,0.00005795,-0.00029009,0.00240804,-0.00
 018311,0.00046229,0.00025494,-0.00004802,-0.00014777,-0.00006580,0.003
 02757,0.01040628,-0.00558661,-0.00142213,-0.03210334,0.02198281,0.0007
 2026,-0.00025758,-0.00054608,-0.00640055,-0.00069897,0.00175582,0.0010
 8690,0.00067874,0.00007150,-0.05207929,0.00821882,0.00883517,0.0000484
 8,0.01178425,-0.01072914,0.05713600,-0.00037531,0.00039141,0.00122601,
 0.00065546,-0.00069423,-0.00010727,-0.00048562,0.00002332,0.00015375,0
 .00383985,0.00570458,-0.00117037,0.00015369,-0.00230780,0.00228741,0.0
 0021579,-0.00008887,-0.00023723,-0.00065657,0.00169344,-0.00057925,0.0
 0026222,0.00072359,-0.00030050,-0.00533025,-0.31067173,0.16961786,-0.0
 0132479,-0.02220865,0.01994617,0.00439132,0.32729488,0.00105813,-0.001
 09352,0.00166983,-0.00076835,0.00072441,0.00029160,0.00035467,-0.00012
 602,-0.00021664,-0.00065164,0.01039632,-0.00812105,-0.00263005,0.00579
 415,-0.00549690,-0.00015660,-0.00058804,0.00085990,0.00179483,0.000108
 57,-0.00002660,0.00000169,0.00024805,-0.00017662,0.01907778,0.19528903
 ,-0.17018186,-0.00089610,-0.02009306,0.01205022,-0.01608189,-0.1885789
 9,0.17187880,-0.01691912,0.02434826,0.01266524,0.00164069,-0.00584764,
 0.00574790,-0.00429967,0.00138742,-0.00010096,-0.11539199,0.10942131,0
 .06148293,0.00205225,-0.00043405,-0.00074735,-0.00010457,0.00040601,0.
 00025055,-0.00002409,-0.00006567,0.00007127,-0.00033705,0.00042086,0.0
 0029112,0.00046625,-0.01256470,-0.01180841,-0.00214558,-0.00019926,-0.
 00190047,0.00040424,0.00001736,0.00035728,0.13091650,-0.00279793,0.005
 82702,0.00331563,-0.00255631,-0.00003256,0.00084627,0.00038008,0.00056
 767,-0.00044854,0.10870978,-0.21694069,-0.08496854,-0.00037789,-0.0001
 5468,-0.00020638,-0.00020719,0.00004936,0.00011476,0.00001821,0.000015
 19,-0.00001223,-0.00036344,-0.00019278,-0.00012261,0.00003257,-0.00173
 675,-0.00257547,-0.00021453,0.00063984,0.00030492,-0.00015382,0.000103
 60,-0.00004807,-0.11320727,0.22585505,0.00067319,-0.00679932,0.0029168
 1,0.00478064,-0.00041335,0.00267588,-0.00123979,-0.00048271,-0.0005268
 4,0.07114936,-0.07953311,-0.08528570,0.00164988,0.00001201,-0.00093228
 ,-0.00064182,0.00012381,0.00031373,-0.00014414,-0.00008126,0.00012107,
 -0.00044470,0.00012855,0.00035812,-0.00326207,-0.01802068,-0.01960040,
 -0.00308478,0.00026862,-0.00241288,0.00036292,-0.00036975,-0.00027710,
 -0.06096509,0.09352148,0.09586253,-0.00508920,-0.02516557,0.01243791,0
 .00236753,-0.00413951,-0.00326496,-0.00125609,0.00043152,0.00069210,-0
 .05463227,-0.04139115,0.02980591,0.00146996,0.00131633,-0.00112576,-0.
 00000216,-0.00043869,0.00035796,-0.00057794,-0.00075332,0.00035243,-0.
 00004629,0.00006421,0.00008188,-0.00495996,0.01013678,-0.01341029,0.00
 027097,0.00006617,0.00035774,-0.00176942,-0.00108657,-0.00159293,0.003
 32961,0.01214983,-0.00728682,0.06476516,-0.00464137,-0.00191313,0.0018
 4257,0.00129136,-0.00388301,-0.00299357,-0.00136947,0.00072421,0.00107
 996,-0.03740076,-0.26004572,0.11421015,0.00117070,0.00065897,-0.000287
 37,0.00018150,-0.00008646,0.00002072,0.00019785,-0.00028152,0.00028551
 ,-0.00004066,0.00003403,0.00004898,-0.00199335,0.00348284,-0.00387817,
 0.00020640,0.00020028,0.00019365,-0.00092542,0.00024626,-0.00108398,-0
 .00472132,-0.01565867,0.01114757,0.04479279,0.27526304,-0.00423017,0.0
 0901776,0.00192602,0.00143549,-0.00147197,-0.00309016,-0.00187766,-0.0
 0025704,0.00126044,0.04029077,0.11416123,-0.09947092,0.00150825,0.0007
 2638,-0.00094968,-0.00054666,-0.00040311,0.00035780,-0.00033530,-0.000
 33514,0.00041004,-0.00016309,0.00001780,0.00012312,-0.01076225,0.01380
 205,-0.02215426,0.00012612,0.00050784,-0.00033430,-0.00261486,-0.00181
 383,-0.00237007,-0.00212678,-0.01057800,0.00883717,-0.02383125,-0.1220
 9599,0.11190163,-0.08887235,-0.02803432,0.01451419,0.00830772,0.018268
 12,-0.00529921,-0.00070866,0.00220566,-0.00097197,-0.01019339,-0.03011
 314,0.00898230,0.00004036,0.00013256,0.00004740,-0.00004951,0.00010636
 ,-0.00007276,0.00002272,0.00007747,-0.00005560,-0.00000734,-0.00001968
 ,0.00002255,0.00057951,-0.00027966,0.00019757,-0.00012235,0.00006454,0
 .00009044,-0.00045162,-0.00022593,-0.00023976,-0.00029220,-0.00133788,
 -0.00118337,-0.00218518,0.00008086,0.00254034,0.56441980,-0.03098355,-
 0.19521035,0.03053121,0.00153567,-0.03184837,0.00435743,-0.00678100,0.
 00105300,0.00109918,-0.01048450,-0.00967602,0.00196976,-0.00005675,0.0
 0013220,0.00098526,0.00039856,0.00011076,-0.00015511,0.00002543,0.0000
 4441,-0.00006059,0.00001754,-0.00005062,-0.00006475,0.00349680,0.00091
 477,0.00122577,-0.00020190,-0.00015065,-0.00010150,-0.00051317,-0.0000
 4611,-0.00019728,0.00186973,0.00111635,-0.00059027,0.00120559,0.001146
 92,-0.00061397,-0.02349733,0.49194782,0.01647897,0.03186406,-0.0681228
 7,-0.00068691,-0.00771226,-0.00039237,-0.00188077,-0.00332324,-0.00220
 053,0.00305112,0.01127122,-0.00350296,-0.00032864,-0.00002133,-0.00048
 692,-0.00025290,0.00005972,0.00005344,-0.00008263,0.00000798,-0.000104
 27,0.00000478,0.00002148,0.00004371,-0.00139326,-0.00181704,0.00069972
 ,0.00012034,-0.00001306,-0.00005479,0.00017320,0.00016195,0.00024771,-
 0.00273382,0.00109762,-0.00210567,0.00478386,0.00230111,0.00295871,-0.
 00798249,0.01936801,0.52752055,0.00430143,-0.00661543,-0.00319057,-0.0
 0108267,-0.00201233,0.00110795,0.00013401,0.00179571,-0.00002611,0.000
 28353,-0.00185303,-0.00075653,-0.00006398,-0.00001376,0.00009028,0.000
 04304,0.00001041,-0.00000626,0.00000381,0.00000303,-0.00001177,0.00000
 499,0.00000751,-0.00000947,0.00027428,0.00011956,0.00040647,0.00002539
 ,-0.00001967,-0.00001753,0.00001840,0.00012832,-0.00001245,0.00011649,
 -0.00004897,0.00026028,0.00017922,-0.00010974,-0.00029495,-0.16556849,
 0.11348202,0.06647004,0.17839386,0.01994965,-0.01940925,-0.01018210,-0
 .00334797,-0.00422592,0.00098426,-0.00032101,0.00020101,0.00004721,0.0
 0442346,0.00156620,-0.00006707,0.00002851,0.00001542,-0.00029506,-0.00
 011929,-0.00002914,0.00005030,0.00000984,-0.00001968,0.00002252,-0.000
 01624,0.00001511,0.00001963,-0.00149479,-0.00022938,-0.00098559,0.0000
 8427,0.00003165,0.00006102,-0.00010622,-0.00014486,-0.00007285,-0.0013
 7982,0.00013092,0.00047192,0.00006654,0.00048426,0.00002466,0.11135227
 ,-0.15280533,-0.06261263,-0.12208492,0.16894904,-0.00559066,0.00547089
 ,0.00184327,0.00073198,0.00134154,-0.00002794,0.00005904,-0.00016545,0
 .00039768,0.00008339,0.00081708,0.00086442,0.00002625,0.00001589,-0.00
 002193,-0.00000799,-0.00000331,0.00000608,0.00000757,-0.00000154,0.000
 00361,0.00000098,0.00000318,0.00000684,-0.00008338,-0.00007349,-0.0002
 4555,-0.00001393,0.00000570,-0.00002536,-0.00007568,-0.00007149,-0.000
 04838,0.00007833,0.00004726,-0.00004164,-0.00020501,-0.00002531,0.0000
 3330,0.06726272,-0.06441462,-0.08442382,-0.07580345,0.06762149,0.08769
 339,-0.00499323,-0.00493807,0.00117699,-0.00266661,0.00150005,0.002062
 03,0.00189119,0.00073536,-0.00084528,0.00072444,-0.00151313,0.00007645
 ,0.00008894,0.00003124,-0.00026096,-0.00012603,-0.00001178,0.00002663,
 -0.00000408,0.00000013,0.00002032,-0.00000615,0.00000479,0.00002737,-0
 .00080232,-0.00029175,-0.00060366,-0.00001258,0.00005377,0.00006169,0.
 00002376,-0.00003972,0.00008071,0.00000235,-0.00027942,-0.00043819,-0.
 00010216,-0.00016715,0.00016442,-0.25554971,-0.05196866,-0.08959549,-0
 .01701383,-0.00499000,-0.00822972,0.27754342,-0.02749873,-0.00944999,-
 0.00842754,-0.00355063,0.00152748,0.00135502,0.00184134,0.00074172,-0.
 00105981,0.00228728,-0.00383231,-0.00024050,0.00003850,0.00002519,-0.0
 0050914,-0.00024283,-0.00001825,0.00005594,0.00000444,-0.00000750,0.00
 001299,-0.00001453,0.00002543,0.00004278,-0.00186653,-0.00051480,-0.00
 075603,0.00004185,0.00007499,0.00012980,-0.00005120,-0.00010865,0.0000
 4296,-0.00047994,0.00035818,-0.00033616,-0.00021222,-0.00002721,0.0007
 3485,-0.05305144,-0.05768464,-0.02319284,0.01769854,0.00485231,0.00924
 987,0.06166392,0.06413348,0.00954493,0.00202666,0.00498255,-0.00059964
 ,-0.00078691,0.00077933,0.00008637,0.00028875,-0.00057467,0.00066885,0
 .00123757,-0.00017761,0.00006348,0.00001564,0.00010830,0.00004387,-0.0
 0000023,-0.00000990,-0.00000200,-0.00000657,0.00001157,-0.00000421,-0.
 00000174,-0.00000619,0.00021308,0.00025463,-0.00022709,-0.00004760,-0.
 00000396,-0.00001602,-0.00000312,-0.00002348,-0.00003848,0.00007591,0.
 00019356,0.00019353,0.00012745,0.00016752,-0.00034934,-0.08929428,-0.0
 2318001,-0.08339363,0.01178731,0.00416162,0.00494535,0.09705211,0.0217
 6807,0.08795806,-0.00045449,-0.00299904,0.00946444,-0.00085403,0.00141
 508,-0.00008109,0.00122326,-0.00086887,-0.00036758,0.00065654,-0.00128
 861,0.00093733,0.00008638,0.00007780,0.00002364,0.00001551,-0.00000272
 ,-0.00000697,0.00003307,-0.00000151,0.00002041,-0.00000055,-0.00000255
 ,0.00000230,0.00013557,0.00038057,-0.00026263,-0.00000445,0.00001192,0
 .00004662,-0.00028585,-0.00015715,-0.00007930,0.00039862,0.00007200,0.
 00018231,-0.00060574,-0.00059854,-0.00043007,-0.04672014,-0.00001295,0
 .00993107,-0.00064976,-0.00355187,0.02207445,0.00077437,0.00302104,-0.
 02981286,0.04630841,-0.00361602,-0.01010002,0.03010421,-0.00414993,0.0
 0243683,0.00287424,0.00182917,0.00108040,-0.00097868,0.00528142,-0.001
 36528,0.00327363,0.00026447,0.00007572,-0.00040819,-0.00017469,-0.0000
 6273,0.00006531,0.00003509,-0.00002773,0.00007501,-0.00001388,0.000019
 52,0.00003949,-0.00196497,-0.00008768,-0.00211677,-0.00002347,0.000051
 45,0.00008912,-0.00024172,-0.00016259,-0.00007256,0.00000196,-0.000181
 97,0.00017291,-0.00146958,-0.00072581,-0.00060202,-0.00006183,-0.04880
 030,0.03434404,-0.00036685,0.00245251,-0.02012471,0.00065783,0.0005890
 0,-0.00623300,0.00463346,0.05619727,0.00332537,0.00729979,-0.00086480,
 0.00395296,-0.00152831,-0.00049403,-0.00238709,-0.00043831,0.00089027,
 -0.00340271,0.00087639,-0.00135870,0.00006229,0.00004466,0.00042245,0.
 00016830,0.00004993,-0.00007285,-0.00001177,0.00001439,-0.00001239,-0.
 00000084,-0.00002727,-0.00002228,0.00154676,0.00022672,0.00034349,-0.0
 0017687,-0.00004311,-0.00010276,-0.00005767,-0.00007229,0.00001461,-0.
 00008388,-0.00021119,0.00000604,0.00055056,0.00048606,0.00029494,0.008
 73362,0.03015537,-0.29037650,0.00003020,0.00095914,-0.01119012,-0.0002
 2902,0.00064908,-0.01390434,-0.01162052,-0.03934120,0.31661050,0.02054
 965,0.01845106,-0.00464532,-0.11395952,0.00887995,0.02317872,-0.040448
 11,-0.06903060,0.02300217,-0.00624926,-0.00046048,-0.00003068,0.000264
 27,0.00007682,0.00068047,0.00023263,0.00005132,-0.00015269,-0.00001117
 ,0.00005340,-0.00005351,-0.00005025,-0.00004975,0.00002441,0.00268356,
 0.00039528,0.00072012,0.00082742,-0.00043687,0.00048526,-0.00004059,0.
 00000984,0.00028553,0.00052049,0.00022526,-0.00008957,-0.00015729,0.00
 229290,-0.00007681,-0.00299672,0.00276523,0.00384748,0.00052419,0.0016
 3540,-0.00029049,0.00026001,0.00023693,0.00013191,-0.00004066,-0.00068
 380,-0.00035651,0.67349619,0.01667024,-0.04623435,-0.01009091,-0.02103
 775,-0.24017839,-0.00339156,-0.04638181,-0.02309009,0.02070509,-0.0237
 4545,-0.01052193,-0.00641487,-0.00104395,0.00008578,0.00284552,0.00123
 351,0.00029458,-0.00042422,0.00004381,0.00014301,-0.00027126,0.0000242
 5,-0.00016104,-0.00027100,0.01092361,0.00396162,0.00809311,0.00108271,
 -0.00068900,0.00007576,-0.00028978,0.00035025,-0.00061435,0.00083212,-
 0.00063254,0.00124272,0.00185405,0.00018269,0.00074218,0.00355067,0.00
 051943,-0.00057169,0.00002460,-0.00144810,0.00024030,-0.00057051,-0.00
 077006,0.00012461,-0.00020169,-0.00173414,0.00098475,-0.10335514,0.605
 73789,0.00560919,-0.01169218,0.01040230,0.03382702,0.03786415,-0.06841
 997,0.01988876,0.02854994,0.00973567,-0.00587595,-0.00174219,-0.001267
 11,0.00001223,0.00009987,0.00067992,0.00027563,0.00005732,-0.00009817,
 0.00000137,0.00000936,-0.00005291,-0.00001850,-0.00002584,-0.00002061,
 0.00256717,0.00071647,0.00148857,0.00042220,-0.00037256,0.00004396,-0.
 00012113,0.00005382,-0.00010202,-0.00034543,0.00019542,-0.00026377,0.0
 0102257,-0.00033909,0.00007608,0.00247520,0.00008327,0.00317250,0.0000
 5948,-0.00030219,0.00016768,-0.00056437,0.00024720,-0.00025691,-0.0000
 5909,-0.00130527,0.00000028,-0.27389211,-0.13614035,0.27432640,-0.0033
 3570,0.00154963,0.00127969,-0.00893619,-0.00878075,0.00206464,0.002894
 41,-0.00240971,0.00231431,0.00298912,0.00417057,-0.00079847,-0.0001015
 0,-0.00002975,-0.00020929,-0.00005100,-0.00003156,0.00005162,-0.000004
 75,-0.00005675,0.00002152,0.00003255,0.00001933,0.00000043,-0.00107366
 ,-0.00082064,-0.00014584,-0.00040641,0.00019348,-0.00061940,0.00018398
 ,0.00003124,0.00009188,-0.00044640,-0.00006308,-0.00032483,-0.00093107
 ,0.00127497,0.00158194,-0.00023755,0.00011039,-0.00010091,0.00002105,0
 .00002711,-0.00005103,-0.00000278,-0.00002538,-0.00000773,-0.00005590,
 0.00011425,0.00000146,-0.23416183,-0.04346233,0.19731508,0.25768115,0.
 00138676,-0.00062274,-0.00204058,-0.02450689,0.00659107,0.02383585,-0.
 00395601,-0.00779786,0.00106274,-0.00127607,-0.00260036,0.00161233,0.0
 0019614,0.00005003,-0.00004765,-0.00004278,-0.00001160,-0.00000733,0.0
 0002022,0.00000581,0.00003233,-0.00000695,-0.00000193,0.00001937,0.000
 47969,0.00039541,0.00002041,0.00016343,-0.00006672,0.00037409,-0.00012
 939,-0.00008086,-0.00006403,0.00007067,0.00068924,-0.00043775,0.002586
 18,-0.00013300,-0.00129234,-0.00021847,0.00007645,-0.00024978,0.000021
 10,0.00010716,-0.00002721,0.00013110,0.00011188,0.00001988,0.00004871,
 0.00019944,-0.00011618,-0.04751656,-0.08287730,0.06597174,0.05802519,0
 .07852936,-0.00146619,0.00169325,0.00112054,-0.00554797,-0.01002676,-0
 .00559134,0.00151864,0.00046328,0.00416169,0.00257202,-0.00063602,0.00
 082189,-0.00005889,-0.00008185,-0.00021966,-0.00007244,-0.00001244,0.0
 0004303,-0.00001204,0.00000341,0.00002119,0.00003403,0.00001615,0.0000
 0015,-0.00114254,0.00006723,-0.00095775,-0.00069512,0.00047839,-0.0005
 8582,0.00000943,-0.00008429,-0.00010262,-0.00013523,-0.00031313,0.0000
 0026,0.00081593,-0.00092194,0.00043791,-0.00011192,-0.00016574,-0.0004
 5219,-0.00005877,-0.00001807,0.00001370,-0.00009664,-0.00004812,-0.000
 00023,0.00004044,0.00012653,-0.00009460,0.23144473,0.08086166,-0.21038
 745,-0.21974947,-0.07036278,0.21282852,-0.00039357,-0.00207010,0.00078
 957,0.00921145,-0.00925237,-0.00184386,0.00032926,-0.00008380,-0.00087
 525,-0.00035573,-0.00042404,0.00046167,0.00007624,0.00001645,0.0000013
 6,-0.00001180,-0.00000063,-0.00000433,0.00000125,0.00000614,0.00000363
 ,-0.00001172,-0.00000448,0.00001168,0.00007429,0.00006258,-0.00021715,
 0.00010965,-0.00003927,0.00013866,-0.00002695,-0.00002317,0.00000658,0
 .00011319,0.00001998,0.00004658,-0.00006768,0.00047844,-0.00035747,0.0
 0058510,-0.00040716,0.00017695,0.00005502,-0.00016491,0.00002661,-0.00
 002902,0.00015960,-0.00002383,0.00003984,-0.00005090,-0.00004464,-0.30
 124300,0.20384882,0.01740068,-0.01405752,0.01452395,-0.00728799,0.3056
 0169,-0.00500674,-0.00307058,0.00240990,0.03541066,-0.02881148,-0.0001
 1855,-0.00096264,0.00748462,-0.00236760,-0.00045703,0.00037836,0.00075
 373,0.00009658,0.00001406,-0.00004124,-0.00002720,-0.00000825,0.000000
 56,0.00000254,-0.00000056,0.00000591,-0.00001370,-0.00000081,0.0000138
 1,-0.00014931,0.00000688,-0.00023511,0.00014910,-0.00010691,0.00014471
 ,-0.00003322,-0.00001698,0.00002926,0.00012397,0.00017824,-0.00002526,
 -0.00001338,0.00033103,-0.00027134,0.00100116,-0.00078972,-0.00098333,
 -0.00016613,-0.00049392,0.00009396,-0.00000801,-0.00002626,-0.00002261
 ,0.00002490,0.00014613,0.00003159,0.18645982,-0.20293833,0.01807111,-0
 .00983622,0.00743650,-0.00103875,-0.20659515,0.22028799,-0.00181811,0.
 00226360,0.00400525,-0.00595206,-0.01019723,-0.00158568,0.00129955,0.0
 0032736,-0.00336192,0.00348496,0.00090693,-0.00026892,0.00017856,0.000
 01841,-0.00036950,-0.00016495,-0.00003992,0.00005084,-0.00001622,-0.00
 002164,0.00003100,-0.00002770,0.00001614,0.00004780,-0.00153218,-0.000
 61012,-0.00125604,0.00016794,-0.00001464,0.00013610,0.00002815,-0.0000
 3823,0.00014568,-0.00007313,-0.00015276,0.00016116,-0.00066929,-0.0001
 5839,0.00010156,0.00034504,-0.00023142,0.00092016,-0.00002413,0.000111
 78,0.00004940,0.00011461,0.00028159,-0.00002428,-0.00000289,0.00001792
 ,-0.00008923,-0.00421312,0.04227449,-0.01922446,0.01728441,-0.01830312
 ,-0.00105723,-0.00840944,-0.01645075,0.02158829\\0.00000039,0.00000125
 ,-0.00000308,0.00000009,0.00000116,-0.00000400,-0.00000093,0.00000164,
 -0.00000671,0.00000160,0.00000069,0.00000024,-0.00000006,-0.00000224,0
 .00000712,-0.00000191,-0.00000376,0.00000884,0.00000208,-0.00000141,0.
 00000803,0.00000066,-0.00000185,0.00000684,-0.00000148,-0.00000172,0.0
 0000348,-0.00000202,-0.00000226,0.00000344,-0.00000332,-0.00000263,0.0
 0000236,0.00000209,0.00000088,0.00000057,0.00000351,0.00000145,0.00000
 198,-0.00000150,0.00000124,-0.00000569,-0.00000107,0.00000097,-0.00000
 491,-0.00000087,0.00000200,-0.00000860,-0.00000417,-0.00000037,-0.0000
 0634,0.00000157,0.00000128,-0.00000152,0.00000333,0.00000164,0.0000004
 1,0.00000200,0.00000201,-0.00000246\\\@


 Happiness is a conscious choice, not an automatic response.
 -- Mildred Barthel
 Job cpu time:       0 days  2 hours  4 minutes 41.8 seconds.
 Elapsed time:       0 days  0 hours  7 minutes 51.0 seconds.
 File lengths (MBytes):  RWF=    231 Int=      0 D2E=      0 Chk=     19 Scr=      1
 Normal termination of Gaussian 16 at Wed Feb 10 05:23:25 2021.
