 Entering Gaussian System, Link 0=g16
 Initial command:
 /apps/gaussian/16/A.03/g16/l1.exe "/beegfs/scratch/user/q/tla25/Gau-14037.inp" -scrdir="/beegfs/scratch/user/q/tla25/"
 Entering Link 1 = /apps/gaussian/16/A.03/g16/l1.exe PID=     14038.
  
 Copyright (c) 1988,1990,1992,1993,1995,1998,2003,2009,2016,
            Gaussian, Inc.  All Rights Reserved.
  
 This is part of the Gaussian(R) 16 program.  It is based on
 the Gaussian(R) 09 system (copyright 2009, Gaussian, Inc.),
 the Gaussian(R) 03 system (copyright 2003, Gaussian, Inc.),
 the Gaussian(R) 98 system (copyright 1998, Gaussian, Inc.),
 the Gaussian(R) 94 system (copyright 1995, Gaussian, Inc.),
 the Gaussian 92(TM) system (copyright 1992, Gaussian, Inc.),
 the Gaussian 90(TM) system (copyright 1990, Gaussian, Inc.),
 the Gaussian 88(TM) system (copyright 1988, Gaussian, Inc.),
 the Gaussian 86(TM) system (copyright 1986, Carnegie Mellon
 University), and the Gaussian 82(TM) system (copyright 1983,
 Carnegie Mellon University). Gaussian is a federally registered
 trademark of Gaussian, Inc.
  
 This software contains proprietary and confidential information,
 including trade secrets, belonging to Gaussian, Inc.
  
 This software is provided under written license and may be
 used, copied, transmitted, or stored only in accord with that
 written license.
  
 The following legend is applicable only to US Government
 contracts under FAR:
  
                    RESTRICTED RIGHTS LEGEND
  
 Use, reproduction and disclosure by the US Government is
 subject to restrictions as set forth in subparagraphs (a)
 and (c) of the Commercial Computer Software - Restricted
 Rights clause in FAR 52.227-19.
  
 Gaussian, Inc.
 340 Quinnipiac St., Bldg. 40, Wallingford CT 06492
  
  
 ---------------------------------------------------------------
 Warning -- This program may not be used in any manner that
 competes with the business of Gaussian, Inc. or will provide
 assistance to any competitor of Gaussian, Inc.  The licensee
 of this program is prohibited from giving any competitor of
 Gaussian, Inc. access to this program.  By using this program,
 the user acknowledges that Gaussian, Inc. is engaged in the
 business of creating and licensing software in the field of
 computational chemistry and represents and warrants to the
 licensee that it is not a competitor of Gaussian, Inc. and that
 it will not use this program in any manner prohibited above.
 ---------------------------------------------------------------
  

 Cite this work as:
 Gaussian 16, Revision A.03,
 M. J. Frisch, G. W. Trucks, H. B. Schlegel, G. E. Scuseria, 
 M. A. Robb, J. R. Cheeseman, G. Scalmani, V. Barone, 
 G. A. Petersson, H. Nakatsuji, X. Li, M. Caricato, A. V. Marenich, 
 J. Bloino, B. G. Janesko, R. Gomperts, B. Mennucci, H. P. Hratchian, 
 J. V. Ortiz, A. F. Izmaylov, J. L. Sonnenberg, D. Williams-Young, 
 F. Ding, F. Lipparini, F. Egidi, J. Goings, B. Peng, A. Petrone, 
 T. Henderson, D. Ranasinghe, V. G. Zakrzewski, J. Gao, N. Rega, 
 G. Zheng, W. Liang, M. Hada, M. Ehara, K. Toyota, R. Fukuda, 
 J. Hasegawa, M. Ishida, T. Nakajima, Y. Honda, O. Kitao, H. Nakai, 
 T. Vreven, K. Throssell, J. A. Montgomery, Jr., J. E. Peralta, 
 F. Ogliaro, M. J. Bearpark, J. J. Heyd, E. N. Brothers, K. N. Kudin, 
 V. N. Staroverov, T. A. Keith, R. Kobayashi, J. Normand, 
 K. Raghavachari, A. P. Rendell, J. C. Burant, S. S. Iyengar, 
 J. Tomasi, M. Cossi, J. M. Millam, M. Klene, C. Adamo, R. Cammi, 
 J. W. Ochterski, R. L. Martin, K. Morokuma, O. Farkas, 
 J. B. Foresman, and D. J. Fox, Gaussian, Inc., Wallingford CT, 2016.
 
 ******************************************
 Gaussian 16:  ES64L-G16RevA.03 25-Dec-2016
                 9-Feb-2021 
 ******************************************
 %nprocshared=16
 Will use up to   16 processors via shared memory.
 %mem=48GB
 ----------------------------------------------------------------------
 # wB97XD def2tzvp, opt=(ts, noeigen, calcfc, maxcycles=70, maxstep=1),
  freq=noraman, scrf=(iefpcm, solvent=water)
 ----------------------------------------------------------------------
 1/5=1,6=70,8=1,10=4,11=1,18=20,26=3,38=1/1,3;
 2/9=110,12=2,17=6,18=5,40=1/2;
 3/5=44,7=101,11=2,25=1,30=1,70=2201,71=2,72=1,74=-58,140=1/1,2,3;
 4//1;
 5/5=2,38=5,53=1/2;
 8/6=4,10=90,11=11/1;
 11/6=1,8=1,9=11,15=111,16=1/1,2,10;
 10/6=1,13=1/2;
 6/7=2,8=2,9=2,10=2,28=1/1;
 7/10=1,18=20,25=1/1,2,3,16;
 1/5=1,6=70,8=1,10=4,11=1,18=20,26=3/3(2);
 2/9=110/2;
 99//99;
 2/9=110/2;
 3/5=44,7=101,11=2,25=1,30=1,70=2205,71=1,72=1,74=-58/1,2,3;
 4/5=5,16=3,69=1/1;
 5/5=2,38=5,53=1/2;
 7//1,2,3,16;
 1/5=1,6=70,8=1,11=1,18=20,26=3/3(-5);
 2/9=110/2;
 6/7=2,8=2,9=2,10=2,19=2,28=1/1;
 99/9=1/99;
 ------------------------
 0_iteration/TS-267-0.out
 ------------------------
 Symbolic Z-matrix:
 Charge =  0 Multiplicity = 1
 C                    -0.15668   0.28426   0.4117 
 C                    -0.54991   1.62167   0.05752 
 O                     0.24036   2.5752    0.17255 
 C                     1.13192   0.00065   0.84194 
 C                     3.71544  -0.50425  -0.14286 
 H                     4.38996  -0.60763  -0.9927 
 H                     4.06207   0.31038   0.49079 
 H                     3.72367  -1.42739   0.43412 
 N                     2.34612  -0.22329  -0.56879 
 H                     2.27651   0.64504  -1.08619 
 H                     1.96738  -0.96409  -1.14676 
 H                     1.32914  -0.95808   1.30663 
 H                     1.66151   0.83221   1.29273 
 Br                   -1.29583  -1.20257  -0.02254 
 N                    -1.81469   1.84567  -0.39155 
 H                    -2.47843   1.10625  -0.52461 
 H                    -2.06528   2.78108  -0.65293 
 
 Add virtual bond connecting atoms N9         and C4         Dist= 3.54D+00.

 GradGradGradGradGradGradGradGradGradGradGradGradGradGradGradGradGradGrad
 Berny optimization.
 Initialization pass.
                           ----------------------------
                           !    Initial Parameters    !
                           ! (Angstroms and Degrees)  !
 --------------------------                            --------------------------
 ! Name  Definition              Value          Derivative Info.                !
 --------------------------------------------------------------------------------
 ! R1    R(1,2)                  1.4383         calculate D2E/DX2 analytically  !
 ! R2    R(1,4)                  1.3878         calculate D2E/DX2 analytically  !
 ! R3    R(1,14)                 1.9227         calculate D2E/DX2 analytically  !
 ! R4    R(2,3)                  1.2438         calculate D2E/DX2 analytically  !
 ! R5    R(2,15)                 1.3607         calculate D2E/DX2 analytically  !
 ! R6    R(4,9)                  1.8747         calculate D2E/DX2 analytically  !
 ! R7    R(4,12)                 1.0835         calculate D2E/DX2 analytically  !
 ! R8    R(4,13)                 1.0841         calculate D2E/DX2 analytically  !
 ! R9    R(5,6)                  1.0899         calculate D2E/DX2 analytically  !
 ! R10   R(5,7)                  1.0887         calculate D2E/DX2 analytically  !
 ! R11   R(5,8)                  1.0887         calculate D2E/DX2 analytically  !
 ! R12   R(5,9)                  1.4613         calculate D2E/DX2 analytically  !
 ! R13   R(9,10)                 1.0132         calculate D2E/DX2 analytically  !
 ! R14   R(9,11)                 1.0131         calculate D2E/DX2 analytically  !
 ! R15   R(15,16)                1.0025         calculate D2E/DX2 analytically  !
 ! R16   R(15,17)                1.003          calculate D2E/DX2 analytically  !
 ! A1    A(2,1,4)              121.3465         calculate D2E/DX2 analytically  !
 ! A2    A(2,1,14)             120.096          calculate D2E/DX2 analytically  !
 ! A3    A(4,1,14)             117.5225         calculate D2E/DX2 analytically  !
 ! A4    A(1,2,3)              121.0894         calculate D2E/DX2 analytically  !
 ! A5    A(1,2,15)             119.2397         calculate D2E/DX2 analytically  !
 ! A6    A(3,2,15)             119.6636         calculate D2E/DX2 analytically  !
 ! A7    A(1,4,9)              113.1097         calculate D2E/DX2 analytically  !
 ! A8    A(1,4,12)             118.8675         calculate D2E/DX2 analytically  !
 ! A9    A(1,4,13)             115.1987         calculate D2E/DX2 analytically  !
 ! A10   A(9,4,12)              95.6899         calculate D2E/DX2 analytically  !
 ! A11   A(9,4,13)              95.0568         calculate D2E/DX2 analytically  !
 ! A12   A(12,4,13)            114.2979         calculate D2E/DX2 analytically  !
 ! A13   A(6,5,7)              109.1325         calculate D2E/DX2 analytically  !
 ! A14   A(6,5,8)              109.1564         calculate D2E/DX2 analytically  !
 ! A15   A(6,5,9)              111.7705         calculate D2E/DX2 analytically  !
 ! A16   A(7,5,8)              108.8819         calculate D2E/DX2 analytically  !
 ! A17   A(7,5,9)              108.9126         calculate D2E/DX2 analytically  !
 ! A18   A(8,5,9)              108.9413         calculate D2E/DX2 analytically  !
 ! A19   A(4,9,5)              114.2385         calculate D2E/DX2 analytically  !
 ! A20   A(4,9,10)             103.7334         calculate D2E/DX2 analytically  !
 ! A21   A(4,9,11)             105.9341         calculate D2E/DX2 analytically  !
 ! A22   A(5,9,10)             112.2101         calculate D2E/DX2 analytically  !
 ! A23   A(5,9,11)             112.0876         calculate D2E/DX2 analytically  !
 ! A24   A(10,9,11)            108.0396         calculate D2E/DX2 analytically  !
 ! A25   A(2,15,16)            122.5338         calculate D2E/DX2 analytically  !
 ! A26   A(2,15,17)            118.1471         calculate D2E/DX2 analytically  !
 ! A27   A(16,15,17)           119.1991         calculate D2E/DX2 analytically  !
 ! D1    D(4,1,2,3)             -2.6494         calculate D2E/DX2 analytically  !
 ! D2    D(4,1,2,15)           178.3357         calculate D2E/DX2 analytically  !
 ! D3    D(14,1,2,3)          -170.7256         calculate D2E/DX2 analytically  !
 ! D4    D(14,1,2,15)           10.2595         calculate D2E/DX2 analytically  !
 ! D5    D(2,1,4,9)            -82.5876         calculate D2E/DX2 analytically  !
 ! D6    D(2,1,4,12)           166.4138         calculate D2E/DX2 analytically  !
 ! D7    D(2,1,4,13)            25.2733         calculate D2E/DX2 analytically  !
 ! D8    D(14,1,4,9)            85.7837         calculate D2E/DX2 analytically  !
 ! D9    D(14,1,4,12)          -25.2149         calculate D2E/DX2 analytically  !
 ! D10   D(14,1,4,13)         -166.3553         calculate D2E/DX2 analytically  !
 ! D11   D(1,2,15,16)           -2.7017         calculate D2E/DX2 analytically  !
 ! D12   D(1,2,15,17)         -178.6857         calculate D2E/DX2 analytically  !
 ! D13   D(3,2,15,16)          178.2691         calculate D2E/DX2 analytically  !
 ! D14   D(3,2,15,17)            2.2852         calculate D2E/DX2 analytically  !
 ! D15   D(1,4,9,5)            179.1728         calculate D2E/DX2 analytically  !
 ! D16   D(1,4,9,10)            56.708          calculate D2E/DX2 analytically  !
 ! D17   D(1,4,9,11)           -56.9514         calculate D2E/DX2 analytically  !
 ! D18   D(12,4,9,5)           -56.0753         calculate D2E/DX2 analytically  !
 ! D19   D(12,4,9,10)         -178.5401         calculate D2E/DX2 analytically  !
 ! D20   D(12,4,9,11)           67.8004         calculate D2E/DX2 analytically  !
 ! D21   D(13,4,9,5)            59.0089         calculate D2E/DX2 analytically  !
 ! D22   D(13,4,9,10)          -63.4558         calculate D2E/DX2 analytically  !
 ! D23   D(13,4,9,11)         -177.1153         calculate D2E/DX2 analytically  !
 ! D24   D(6,5,9,4)           -178.8849         calculate D2E/DX2 analytically  !
 ! D25   D(6,5,9,10)           -61.1715         calculate D2E/DX2 analytically  !
 ! D26   D(6,5,9,11)            60.6095         calculate D2E/DX2 analytically  !
 ! D27   D(7,5,9,4)            -58.2278         calculate D2E/DX2 analytically  !
 ! D28   D(7,5,9,10)            59.4856         calculate D2E/DX2 analytically  !
 ! D29   D(7,5,9,11)          -178.7333         calculate D2E/DX2 analytically  !
 ! D30   D(8,5,9,4)             60.4089         calculate D2E/DX2 analytically  !
 ! D31   D(8,5,9,10)           178.1223         calculate D2E/DX2 analytically  !
 ! D32   D(8,5,9,11)           -60.0967         calculate D2E/DX2 analytically  !
 --------------------------------------------------------------------------------
 Trust Radius=1.00D-02 FncErr=1.00D-07 GrdErr=1.00D-06 EigMax=2.50D+02 EigMin=1.00D-04
 Number of steps in this run=     70 maximum allowed number of steps=    102.
 Search for a saddle point of order  1.
 GradGradGradGradGradGradGradGradGradGradGradGradGradGradGradGradGradGrad

                          Input orientation:                          
 ---------------------------------------------------------------------
 Center     Atomic      Atomic             Coordinates (Angstroms)
 Number     Number       Type             X           Y           Z
 ---------------------------------------------------------------------
      1          6           0       -0.156680    0.284260    0.411700
      2          6           0       -0.549910    1.621670    0.057520
      3          8           0        0.240360    2.575200    0.172550
      4          6           0        1.131920    0.000650    0.841940
      5          6           0        3.715440   -0.504250   -0.142860
      6          1           0        4.389960   -0.607630   -0.992700
      7          1           0        4.062070    0.310380    0.490790
      8          1           0        3.723670   -1.427390    0.434120
      9          7           0        2.346120   -0.223290   -0.568790
     10          1           0        2.276510    0.645040   -1.086190
     11          1           0        1.967380   -0.964090   -1.146760
     12          1           0        1.329140   -0.958080    1.306630
     13          1           0        1.661510    0.832210    1.292730
     14         35           0       -1.295830   -1.202570   -0.022540
     15          7           0       -1.814690    1.845670   -0.391550
     16          1           0       -2.478430    1.106250   -0.524610
     17          1           0       -2.065280    2.781080   -0.652930
 ---------------------------------------------------------------------
                    Distance matrix (angstroms):
                    1          2          3          4          5
     1  C    0.000000
     2  C    1.438311   0.000000
     3  O    2.337357   1.243776   0.000000
     4  C    1.387815   2.464056   2.805578   0.000000
     5  C    3.990313   4.770000   4.653888   2.810575   0.000000
     6  H    4.841461   5.520422   5.357928   3.788236   1.089905
     7  H    4.219572   4.814308   4.453780   2.967325   1.088709
     8  H    4.241151   5.263277   5.312494   2.987103   1.088651
     9  N    2.735503   3.490434   3.579854   1.874724   1.461298
    10  H    2.879974   3.201645   3.075037   2.333026   2.069120
    11  H    2.915271   3.804365   4.153282   2.362974   2.067603
    12  H    2.133534   3.427275   3.867253   1.083511   2.828676
    13  H    2.093389   2.653181   2.512466   1.084052   2.840013
    14  Br   1.922730   2.922180   4.082828   2.844123   5.061122
    15  N    2.414997   1.360701   2.252477   3.688917   6.013843
    16  H    2.634932   2.079356   3.167912   4.015525   6.411199
    17  H    3.318177   2.036005   2.457596   4.493052   6.668605
                    6          7          8          9         10
     6  H    0.000000
     7  H    1.775105   0.000000
     8  H    1.775321   1.771319   0.000000
     9  N    2.122428   2.086144   2.086463   0.000000
    10  H    2.458575   2.405637   2.949675   1.013186   0.000000
    11  H    2.453506   2.948486   2.407983   1.013054   1.639674
    12  H    3.844262   3.121457   2.591389   2.256405   3.032011
    13  H    3.839371   2.584203   3.177343   2.246782   2.464248
    14  Br   5.798566   5.591030   5.045242   3.810666   4.160123
    15  N    6.699085   6.137748   6.485991   4.650199   4.319948
    16  H    7.094454   6.666527   6.767905   5.004589   4.810150
    17  H    7.298556   6.704989   7.239119   5.337955   4.858140
                   11         12         13         14         15
    11  H    0.000000
    12  H    2.535056   0.000000
    13  H    3.044891   1.820934   0.000000
    14  Br   3.459665   2.952446   3.823104   0.000000
    15  N    4.771703   4.541860   3.993478   3.114025   0.000000
    16  H    4.943542   4.702392   4.529561   2.642209   1.002496
    17  H    5.525623   5.416944   4.633859   4.105961   1.003049
                   16         17
    16  H    0.000000
    17  H    1.729802   0.000000
 Stoichiometry    C4H9BrN2O
 Framework group  C1[X(C4H9BrN2O)]
 Deg. of freedom    45
 Full point group                 C1      NOp   1
 Largest Abelian subgroup         C1      NOp   1
 Largest concise Abelian subgroup C1      NOp   1
                         Standard orientation:                         
 ---------------------------------------------------------------------
 Center     Atomic      Atomic             Coordinates (Angstroms)
 Number     Number       Type             X           Y           Z
 ---------------------------------------------------------------------
      1          6           0       -0.156680    0.284260    0.411700
      2          6           0       -0.549908    1.621670    0.057520
      3          8           0        0.240363    2.575199    0.172550
      4          6           0        1.131920    0.000648    0.841940
      5          6           0        3.715440   -0.504255   -0.142860
      6          1           0        4.389959   -0.607636   -0.992700
      7          1           0        4.062070    0.310375    0.490790
      8          1           0        3.723668   -1.427395    0.434120
      9          7           0        2.346120   -0.223293   -0.568790
     10          1           0        2.276511    0.645037   -1.086190
     11          1           0        1.967379   -0.964093   -1.146760
     12          1           0        1.329139   -0.958082    1.306630
     13          1           0        1.661511    0.832207    1.292730
     14         35           0       -1.295831   -1.202569   -0.022540
     15          7           0       -1.814688    1.845671   -0.391550
     16          1           0       -2.478429    1.106252   -0.524610
     17          1           0       -2.065277    2.781082   -0.652930
 ---------------------------------------------------------------------
 Rotational constants (GHZ):           1.4859450           0.9327720           0.6090276
 Standard basis: def2TZVP (5D, 7F)
 There are   361 symmetry adapted cartesian basis functions of A   symmetry.
 There are   319 symmetry adapted basis functions of A   symmetry.
   319 basis functions,   543 primitive gaussians,   361 cartesian basis functions
    45 alpha electrons       45 beta electrons
       nuclear repulsion energy       604.5012699371 Hartrees.
 NAtoms=   17 NActive=   17 NUniq=   17 SFac= 1.00D+00 NAtFMM=   60 NAOKFM=F Big=F
 Integral buffers will be    131072 words long.
 Raffenetti 2 integral format.
 Two-electron integral symmetry is turned on.
 Nuclear repulsion after empirical dispersion term =      604.4920918945 Hartrees.
 Force inversion solution in PCM.
 ------------------------------------------------------------------------------
 Polarizable Continuum Model (PCM)
 =================================
 Model                : PCM.
 Atomic radii         : UFF (Universal Force Field).
 Polarization charges : Total charges.
 Charge compensation  : None.
 Solution method      : Matrix inversion.
 Cavity type          : Scaled VdW (van der Waals Surface) (Alpha=1.100).
 Cavity algorithm     : GePol (No added spheres)
                        Default sphere list used, NSphG=   17.
                        Lebedev-Laikov grids with approx.  5.0 points / Ang**2.
                        Smoothing algorithm: York/Karplus (Gamma=1.0000).
                        Polarization charges: spherical gaussians, with
                                              point-specific exponents (IZeta= 3).
                        Self-potential: point-specific (ISelfS= 7).
                        Self-field    : sphere-specific E.n sum rule (ISelfD= 2).
 1st derivatives      : Analytical E(r).r(x)/FMM algorithm (CHGder, D1EAlg=3).
                        Cavity 1st derivative terms included.
 2nd derivatives      : Analytical E(r).r(xy)/FMM algorithm (CHGder, D2EAlg=3).
                        Cavity 2nd derivative terms included.
 Solvent              : Water, Eps=  78.355300 Eps(inf)=   1.777849
 ------------------------------------------------------------------------------
 Spheres list:
 ISph  on   Nord     Re0    Alpha      Xe            Ye            Ze
    1   C      1    1.9255  1.100     -0.156680      0.284260      0.411700
    2   C      2    1.9255  1.100     -0.549908      1.621670      0.057520
    3   O      3    1.7500  1.100      0.240363      2.575199      0.172550
    4   C      4    1.9255  1.100      1.131920      0.000648      0.841940
    5   C      5    1.9255  1.100      3.715440     -0.504255     -0.142860
    6   H      6    1.4430  1.100      4.389959     -0.607636     -0.992700
    7   H      7    1.4430  1.100      4.062070      0.310375      0.490790
    8   H      8    1.4430  1.100      3.723668     -1.427395      0.434120
    9   N      9    1.8300  1.100      2.346120     -0.223293     -0.568790
   10   H     10    1.4430  1.100      2.276511      0.645037     -1.086190
   11   H     11    1.4430  1.100      1.967379     -0.964093     -1.146760
   12   H     12    1.4430  1.100      1.329139     -0.958082      1.306630
   13   H     13    1.4430  1.100      1.661511      0.832207      1.292730
   14  Br     14    2.0945  1.100     -1.295831     -1.202569     -0.022540
   15   N     15    1.8300  1.100     -1.814688      1.845671     -0.391550
   16   H     16    1.4430  1.100     -2.478429      1.106252     -0.524610
   17   H     17    1.4430  1.100     -2.065277      2.781082     -0.652930
 ------------------------------------------------------------------------------
 One-electron integrals computed using PRISM.
   1 Symmetry operations used in ECPInt.
 ECPInt:  NShTT=    8385 NPrTT=   27508 LenC2=    8001 LenP2D=   19966.
 LDataN:  DoStor=T MaxTD1= 6 Len=  172
 NBasis=   319 RedAO= T EigKep=  1.15D-04  NBF=   319
 NBsUse=   319 1.00D-06 EigRej= -1.00D+00 NBFU=   319
 ExpMin= 9.52D-02 ExpMax= 5.65D+05 ExpMxC= 5.46D+03 IAcc=3 IRadAn=         5 AccDes= 0.00D+00
 Harris functional with IExCor= 4639 and IRadAn=       5 diagonalized for initial guess.
 HarFok:  IExCor= 4639 AccDes= 0.00D+00 IRadAn=         5 IDoV= 1 UseB2=F ITyADJ=14
 ICtDFT=  3500011 ScaDFX=  1.000000  1.000000  1.000000  1.000000
 FoFCou: FMM=F IPFlag=           0 FMFlag=      100000 FMFlg1=           0
         NFxFlg=           0 DoJE=T BraDBF=F KetDBF=T FulRan=T
         wScrn=  0.000000 ICntrl=       500 IOpCl=  0 I1Cent=   200000004 NGrid=           0
         NMat0=    1 NMatS0=      1 NMatT0=    0 NMatD0=    1 NMtDS0=    0 NMtDT0=    0
 Petite list used in FoFCou.
 Requested convergence on RMS density matrix=1.00D-08 within 128 cycles.
 Requested convergence on MAX density matrix=1.00D-06.
 Requested convergence on             energy=1.00D-06.
 No special actions if energy rises.
 Inv3:  Mode=1 IEnd=     7087107.
 Iteration    1 A*A^-1 deviation from unit magnitude is 5.33D-15 for   1533.
 Iteration    1 A*A^-1 deviation from orthogonality  is 2.34D-15 for    804    243.
 Iteration    1 A^-1*A deviation from unit magnitude is 5.11D-15 for   1529.
 Iteration    1 A^-1*A deviation from orthogonality  is 2.06D-15 for   1529   1406.
 Error on total polarization charges =  0.01350
 SCF Done:  E(RwB97XD) =  -2916.79304013     A.U. after   15 cycles
            NFock= 15  Conv=0.36D-08     -V/T= 2.0018
 DoSCS=F DFT=T ScalE2(SS,OS)=  1.000000  1.000000
 Range of M.O.s used for correlation:     1   319
 NBasis=   319 NAE=    45 NBE=    45 NFC=     0 NFV=     0
 NROrb=    319 NOA=    45 NOB=    45 NVA=   274 NVB=   274

 **** Warning!!: The largest alpha MO coefficient is  0.19598157D+02

   1 Symmetry operations used in ECPInt.
 ECPInt:  NShTT=    8385 NPrTT=   27508 LenC2=    8001 LenP2D=   19966.
 LDataN:  DoStor=T MaxTD1= 7 Len=  274
 Symmetrizing basis deriv contribution to polar:
 IMax=3 JMax=2 DiffMx= 0.00D+00
 G2DrvN: will do    18 centers at a time, making    1 passes.
 Calling FoFCou, ICntrl=  3107 FMM=F I1Cent=   0 AccDes= 0.00D+00.
 NEqPCM:  Using equilibrium solvation (IEInf=0, Eps=  78.3553, EpsInf=   1.7778)
 G2PCM: DoFxE=T DoFxN=T DoGrad=T DoDP/DQ/DG/TGxP=FFFF NFrqRd=   0 IEInf=0 SqF1=F DoCFld=F IF1Alg=4.
 End of G2Drv F.D. properties file   721 does not exist.
 End of G2Drv F.D. properties file   722 does not exist.
 End of G2Drv F.D. properties file   788 does not exist.
          IDoAtm=11111111111111111
 NEqPCM:  Using equilibrium solvation (IEInf=0, Eps=  78.3553, EpsInf=   1.7778)
          Differentiating once with respect to nuclear coordinates.
 Keep R1 ints in memory in canonical form, NReq=2628860747.
          There are    54 degrees of freedom in the 1st order CPHF.  IDoFFX=6 NUNeed=     0.
     48 vectors produced by pass  0 Test12= 2.28D-14 1.85D-09 XBig12= 1.21D-01 1.23D-01.
 AX will form    48 AO Fock derivatives at one time.
     48 vectors produced by pass  1 Test12= 2.28D-14 1.85D-09 XBig12= 1.90D-02 3.98D-02.
     48 vectors produced by pass  2 Test12= 2.28D-14 1.85D-09 XBig12= 6.22D-04 5.55D-03.
     48 vectors produced by pass  3 Test12= 2.28D-14 1.85D-09 XBig12= 7.83D-06 4.78D-04.
     48 vectors produced by pass  4 Test12= 2.28D-14 1.85D-09 XBig12= 8.51D-08 5.20D-05.
     48 vectors produced by pass  5 Test12= 2.28D-14 1.85D-09 XBig12= 7.90D-10 4.26D-06.
     48 vectors produced by pass  6 Test12= 2.28D-14 1.85D-09 XBig12= 5.14D-12 3.22D-07.
     17 vectors produced by pass  7 Test12= 2.28D-14 1.85D-09 XBig12= 3.86D-14 2.69D-08.
      2 vectors produced by pass  8 Test12= 2.28D-14 1.85D-09 XBig12= 2.47D-16 3.02D-09.
 InvSVY:  IOpt=1 It=  1 EMax= 6.11D-16
 Solved reduced A of dimension   355 with    54 vectors.
 End of Minotr F.D. properties file   721 does not exist.
 End of Minotr F.D. properties file   722 does not exist.
 End of Minotr F.D. properties file   788 does not exist.

 **********************************************************************

            Population analysis using the SCF density.

 **********************************************************************

 Orbital symmetries:
       Occupied  (A) (A) (A) (A) (A) (A) (A) (A) (A) (A) (A) (A)
                 (A) (A) (A) (A) (A) (A) (A) (A) (A) (A) (A) (A)
                 (A) (A) (A) (A) (A) (A) (A) (A) (A) (A) (A) (A)
                 (A) (A) (A) (A) (A) (A) (A) (A) (A)
       Virtual   (A) (A) (A) (A) (A) (A) (A) (A) (A) (A) (A) (A)
                 (A) (A) (A) (A) (A) (A) (A) (A) (A) (A) (A) (A)
                 (A) (A) (A) (A) (A) (A) (A) (A) (A) (A) (A) (A)
                 (A) (A) (A) (A) (A) (A) (A) (A) (A) (A) (A) (A)
                 (A) (A) (A) (A) (A) (A) (A) (A) (A) (A) (A) (A)
                 (A) (A) (A) (A) (A) (A) (A) (A) (A) (A) (A) (A)
                 (A) (A) (A) (A) (A) (A) (A) (A) (A) (A) (A) (A)
                 (A) (A) (A) (A) (A) (A) (A) (A) (A) (A) (A) (A)
                 (A) (A) (A) (A) (A) (A) (A) (A) (A) (A) (A) (A)
                 (A) (A) (A) (A) (A) (A) (A) (A) (A) (A) (A) (A)
                 (A) (A) (A) (A) (A) (A) (A) (A) (A) (A) (A) (A)
                 (A) (A) (A) (A) (A) (A) (A) (A) (A) (A) (A) (A)
                 (A) (A) (A) (A) (A) (A) (A) (A) (A) (A) (A) (A)
                 (A) (A) (A) (A) (A) (A) (A) (A) (A) (A) (A) (A)
                 (A) (A) (A) (A) (A) (A) (A) (A) (A) (A) (A) (A)
                 (A) (A) (A) (A) (A) (A) (A) (A) (A) (A) (A) (A)
                 (A) (A) (A) (A) (A) (A) (A) (A) (A) (A) (A) (A)
                 (A) (A) (A) (A) (A) (A) (A) (A) (A) (A) (A) (A)
                 (A) (A) (A) (A) (A) (A) (A) (A) (A) (A) (A) (A)
                 (A) (A) (A) (A) (A) (A) (A) (A) (A) (A) (A) (A)
                 (A) (A) (A) (A) (A) (A) (A) (A) (A) (A) (A) (A)
                 (A) (A) (A) (A) (A) (A) (A) (A) (A) (A) (A) (A)
                 (A) (A) (A) (A) (A) (A) (A) (A) (A) (A)
 The electronic state is 1-A.
 Alpha  occ. eigenvalues -- -483.11985 -62.66831 -56.45920 -56.45609 -56.45594
 Alpha  occ. eigenvalues --  -19.19366 -14.48755 -14.43489 -10.37697 -10.33133
 Alpha  occ. eigenvalues --  -10.32007 -10.29462  -8.80955  -6.63026  -6.62029
 Alpha  occ. eigenvalues --   -6.61981  -2.73428  -2.73145  -2.73105  -2.72299
 Alpha  occ. eigenvalues --   -2.72299  -1.11884  -1.04024  -0.99013  -0.91341
 Alpha  occ. eigenvalues --   -0.83201  -0.78940  -0.74081  -0.64720  -0.63696
 Alpha  occ. eigenvalues --   -0.61351  -0.57016  -0.55727  -0.53742  -0.50787
 Alpha  occ. eigenvalues --   -0.49972  -0.49438  -0.48239  -0.44511  -0.44198
 Alpha  occ. eigenvalues --   -0.38924  -0.37654  -0.34495  -0.33360  -0.26390
 Alpha virt. eigenvalues --    0.07082   0.08662   0.10328   0.13341   0.14678
 Alpha virt. eigenvalues --    0.15546   0.16589   0.18053   0.18542   0.18739
 Alpha virt. eigenvalues --    0.21060   0.21657   0.22210   0.23572   0.26037
 Alpha virt. eigenvalues --    0.27064   0.28585   0.29072   0.30323   0.31052
 Alpha virt. eigenvalues --    0.32310   0.33409   0.34295   0.35253   0.36213
 Alpha virt. eigenvalues --    0.37312   0.38642   0.39635   0.41030   0.41893
 Alpha virt. eigenvalues --    0.43495   0.45479   0.46533   0.47342   0.47962
 Alpha virt. eigenvalues --    0.48499   0.49621   0.51619   0.52382   0.53101
 Alpha virt. eigenvalues --    0.53906   0.54343   0.55801   0.56423   0.57671
 Alpha virt. eigenvalues --    0.58570   0.59504   0.61094   0.62187   0.63279
 Alpha virt. eigenvalues --    0.64940   0.67018   0.68975   0.69209   0.69432
 Alpha virt. eigenvalues --    0.71853   0.72784   0.73925   0.76994   0.77733
 Alpha virt. eigenvalues --    0.82911   0.83790   0.86114   0.90661   0.91832
 Alpha virt. eigenvalues --    0.93236   0.95535   0.96837   0.98909   1.01961
 Alpha virt. eigenvalues --    1.04248   1.07229   1.07637   1.09932   1.12319
 Alpha virt. eigenvalues --    1.13521   1.16909   1.20533   1.21917   1.27610
 Alpha virt. eigenvalues --    1.28499   1.29197   1.31995   1.32258   1.37133
 Alpha virt. eigenvalues --    1.38686   1.39425   1.42054   1.43044   1.44727
 Alpha virt. eigenvalues --    1.45895   1.49213   1.50946   1.51959   1.54034
 Alpha virt. eigenvalues --    1.55630   1.56158   1.59028   1.59550   1.60874
 Alpha virt. eigenvalues --    1.62068   1.62662   1.63291   1.64447   1.64944
 Alpha virt. eigenvalues --    1.66200   1.67297   1.69102   1.70318   1.70804
 Alpha virt. eigenvalues --    1.73029   1.73735   1.74545   1.77201   1.79994
 Alpha virt. eigenvalues --    1.80294   1.83435   1.85086   1.85596   1.86251
 Alpha virt. eigenvalues --    1.87887   1.91015   1.92760   1.94290   1.96067
 Alpha virt. eigenvalues --    1.96934   1.98494   1.99471   2.01695   2.04144
 Alpha virt. eigenvalues --    2.06431   2.07898   2.09936   2.11358   2.13730
 Alpha virt. eigenvalues --    2.19047   2.22298   2.26007   2.31360   2.32799
 Alpha virt. eigenvalues --    2.34288   2.35268   2.37989   2.40200   2.40651
 Alpha virt. eigenvalues --    2.45033   2.46036   2.49219   2.50224   2.52208
 Alpha virt. eigenvalues --    2.56888   2.60560   2.61629   2.62955   2.66720
 Alpha virt. eigenvalues --    2.67595   2.68981   2.71114   2.72436   2.73723
 Alpha virt. eigenvalues --    2.76181   2.77141   2.79583   2.82856   2.86680
 Alpha virt. eigenvalues --    2.88177   2.89124   2.92247   2.95783   2.97178
 Alpha virt. eigenvalues --    2.99282   3.01146   3.04203   3.07488   3.10272
 Alpha virt. eigenvalues --    3.11926   3.14313   3.16891   3.19007   3.21900
 Alpha virt. eigenvalues --    3.23243   3.25016   3.25800   3.26255   3.28970
 Alpha virt. eigenvalues --    3.33808   3.34884   3.36705   3.37350   3.39888
 Alpha virt. eigenvalues --    3.41547   3.42525   3.47866   3.49570   3.50303
 Alpha virt. eigenvalues --    3.54946   3.57424   3.59605   3.62086   3.63261
 Alpha virt. eigenvalues --    3.66817   3.68193   3.73372   3.75901   3.81764
 Alpha virt. eigenvalues --    3.85645   3.85839   3.90170   3.93738   3.97505
 Alpha virt. eigenvalues --    4.02615   4.09877   4.12807   4.17365   4.18861
 Alpha virt. eigenvalues --    4.20514   4.24355   4.26063   4.27883   4.33245
 Alpha virt. eigenvalues --    4.36410   4.38467   4.41924   4.44059   4.45480
 Alpha virt. eigenvalues --    4.47707   4.53022   4.57900   4.66244   4.69764
 Alpha virt. eigenvalues --    4.72479   4.76984   4.80596   4.85964   4.90299
 Alpha virt. eigenvalues --    4.92975   4.96086   5.01726   5.04608   5.05743
 Alpha virt. eigenvalues --    5.05875   5.12030   5.16133   5.20749   5.21848
 Alpha virt. eigenvalues --    5.25450   5.33035   5.36622   5.38020   5.38799
 Alpha virt. eigenvalues --    5.40003   5.49608   5.50542   5.55276   5.72756
 Alpha virt. eigenvalues --    5.86527   5.88538   6.09819   6.18122   6.39826
 Alpha virt. eigenvalues --    6.51373   6.68386   6.79361   6.93558   7.15942
 Alpha virt. eigenvalues --    7.21530   7.79529  22.46093  22.48368  22.79050
 Alpha virt. eigenvalues --   23.40466  32.12521  32.13027  44.06862
          Condensed to atoms (all electrons):
               1          2          3          4          5          6
     1  C    6.069727   0.092902  -0.215345   0.378977   0.004323  -0.000518
     2  C    0.092902   4.512219   0.723474  -0.036920   0.000170   0.000031
     3  O   -0.215345   0.723474   8.114911   0.027055   0.000100   0.000001
     4  C    0.378977  -0.036920   0.027055   4.989957  -0.015931   0.003559
     5  C    0.004323   0.000170   0.000100  -0.015931   4.837958   0.410837
     6  H   -0.000518   0.000031   0.000001   0.003559   0.410837   0.507276
     7  H    0.000568  -0.000093  -0.000033  -0.003467   0.415605  -0.020704
     8  H    0.000330  -0.000058  -0.000005  -0.004578   0.416045  -0.020082
     9  N   -0.087678   0.007604   0.001389   0.101237   0.240892  -0.026149
    10  H   -0.007352   0.003882   0.004887  -0.011230  -0.020573  -0.003997
    11  H    0.003390  -0.000693  -0.000131  -0.013297  -0.021102  -0.004218
    12  H   -0.057098   0.010903   0.001654   0.432435   0.003842  -0.000235
    13  H   -0.027814  -0.007381   0.010766   0.404339   0.002860  -0.000356
    14  Br   0.208754  -0.022181   0.005577  -0.074441  -0.000458   0.000027
    15  N   -0.203216   0.469723  -0.122828   0.013515   0.000005   0.000001
    16  H   -0.004818  -0.020251   0.004380   0.000005   0.000000  -0.000000
    17  H    0.021391  -0.021473   0.007741  -0.000988  -0.000001   0.000000
               7          8          9         10         11         12
     1  C    0.000568   0.000330  -0.087678  -0.007352   0.003390  -0.057098
     2  C   -0.000093  -0.000058   0.007604   0.003882  -0.000693   0.010903
     3  O   -0.000033  -0.000005   0.001389   0.004887  -0.000131   0.001654
     4  C   -0.003467  -0.004578   0.101237  -0.011230  -0.013297   0.432435
     5  C    0.415605   0.416045   0.240892  -0.020573  -0.021102   0.003842
     6  H   -0.020704  -0.020082  -0.026149  -0.003997  -0.004218  -0.000235
     7  H    0.511519  -0.024690  -0.033969  -0.006004   0.005874  -0.000457
     8  H   -0.024690   0.510155  -0.032812   0.005674  -0.005797   0.003102
     9  N   -0.033969  -0.032812   6.501300   0.361691   0.359291  -0.042273
    10  H   -0.006004   0.005674   0.361691   0.409648  -0.022879   0.003126
    11  H    0.005874  -0.005797   0.359291  -0.022879   0.412383  -0.002220
    12  H   -0.000457   0.003102  -0.042273   0.003126  -0.002220   0.491306
    13  H    0.003393  -0.000054  -0.044951  -0.002703   0.003201  -0.012827
    14  Br  -0.000010   0.000035   0.004531   0.000224   0.002810  -0.005103
    15  N   -0.000004  -0.000000   0.000480   0.000002  -0.000070   0.000169
    16  H   -0.000000   0.000000  -0.000001  -0.000023   0.000003  -0.000037
    17  H    0.000000  -0.000000   0.000002  -0.000012  -0.000000  -0.000002
              13         14         15         16         17
     1  C   -0.027814   0.208754  -0.203216  -0.004818   0.021391
     2  C   -0.007381  -0.022181   0.469723  -0.020251  -0.021473
     3  O    0.010766   0.005577  -0.122828   0.004380   0.007741
     4  C    0.404339  -0.074441   0.013515   0.000005  -0.000988
     5  C    0.002860  -0.000458   0.000005   0.000000  -0.000001
     6  H   -0.000356   0.000027   0.000001  -0.000000   0.000000
     7  H    0.003393  -0.000010  -0.000004  -0.000000   0.000000
     8  H   -0.000054   0.000035  -0.000000   0.000000  -0.000000
     9  N   -0.044951   0.004531   0.000480  -0.000001   0.000002
    10  H   -0.002703   0.000224   0.000002  -0.000023  -0.000012
    11  H    0.003201   0.002810  -0.000070   0.000003  -0.000000
    12  H   -0.012827  -0.005103   0.000169  -0.000037  -0.000002
    13  H    0.499904   0.007166   0.000701  -0.000130  -0.000059
    14  Br   0.007166  35.059329  -0.002316   0.007580   0.000407
    15  N    0.000701  -0.002316   6.600650   0.371133   0.351406
    16  H   -0.000130   0.007580   0.371133   0.396929  -0.020966
    17  H   -0.000059   0.000407   0.351406  -0.020966   0.396604
 Mulliken charges:
               1
     1  C   -0.176522
     2  C    0.288144
     3  O   -0.563592
     4  C   -0.190226
     5  C   -0.274571
     6  H    0.154527
     7  H    0.152472
     8  H    0.152734
     9  N   -0.310583
    10  H    0.285639
    11  H    0.283458
    12  H    0.173715
    13  H    0.163944
    14  Br  -0.191932
    15  N   -0.479351
    16  H    0.266195
    17  H    0.265951
 Sum of Mulliken charges =  -0.00000
 Mulliken charges with hydrogens summed into heavy atoms:
               1
     1  C   -0.176522
     2  C    0.288144
     3  O   -0.563592
     4  C    0.147432
     5  C    0.185162
     9  N    0.258514
    14  Br  -0.191932
    15  N    0.052795
 APT charges:
               1
     1  C   -0.345264
     2  C   -0.311281
     3  O   -0.209766
     4  C   -0.717106
     5  C   -1.405975
     6  H    0.696675
     7  H    0.434355
     8  H    0.381634
     9  N   -0.459913
    10  H    0.444605
    11  H    0.383450
    12  H    0.410516
    13  H    0.453093
    14  Br  -0.069424
    15  N   -0.988909
    16  H    0.427467
    17  H    0.875844
 Sum of APT charges =  -0.00000
 APT charges with hydrogens summed into heavy atoms:
               1
     1  C   -0.345264
     2  C   -0.311281
     3  O   -0.209766
     4  C    0.146503
     5  C    0.106688
     9  N    0.368142
    14  Br  -0.069424
    15  N    0.314403
 Electronic spatial extent (au):  <R**2>=           1784.0843
 Charge=             -0.0000 electrons
 Dipole moment (field-independent basis, Debye):
    X=              5.4307    Y=             -3.8961    Z=             -2.7470  Tot=              7.2262
 Quadrupole moment (field-independent basis, Debye-Ang):
   XX=            -38.4462   YY=            -72.4226   ZZ=            -60.1777
   XY=             -9.7507   XZ=             -0.4004   YZ=             -2.7489
 Traceless Quadrupole moment (field-independent basis, Debye-Ang):
   XX=             18.5693   YY=            -15.4071   ZZ=             -3.1622
   XY=             -9.7507   XZ=             -0.4004   YZ=             -2.7489
 Octapole moment (field-independent basis, Debye-Ang**2):
  XXX=             17.6811  YYY=            -63.5362  ZZZ=             -8.3318  XYY=            -21.9394
  XXY=             -4.5218  XXZ=            -16.6463  XZZ=             -0.4646  YZZ=            -10.7552
  YYZ=            -11.6338  XYZ=              4.4475
 Hexadecapole moment (field-independent basis, Debye-Ang**3):
 XXXX=          -1035.6126 YYYY=           -799.6112 ZZZZ=           -143.4468 XXXY=             -7.7906
 XXXZ=             -7.8934 YYYX=            -23.2995 YYYZ=            -25.8229 ZZZX=             -8.7974
 ZZZY=              0.0793 XXYY=           -287.9804 XXZZ=           -219.9315 YYZZ=           -140.9903
 XXYZ=             -7.9619 YYXZ=             12.8808 ZZXY=              8.7452
 N-N= 6.044920918945D+02 E-N=-8.162589748878D+03  KE= 2.911564689563D+03
  Exact polarizability:   0.000   0.000   0.000   0.000   0.000   0.000
 Approx polarizability: 119.041   0.885 108.001   3.509   1.252  81.435
   1 Symmetry operations used in ECPInt.
 ECPInt:  NShTT=    8385 NPrTT=   27508 LenC2=    8001 LenP2D=   19966.
 LDataN:  DoStor=T MaxTD1= 8 Len=  415
 D2PCM: PCM CHGder 2nd derivatives, FixD1E=F FixD2E=F DoIter=F DoCFld=F I1PDM=0
 Calling FoFJK, ICntrl=    100147 FMM=F ISym2X=0 I1Cent= 0 IOpClX= 0 NMat=1 NMatS=1 NMatT=0.
 ***** Axes restored to original set *****
 -------------------------------------------------------------------
 Center     Atomic                   Forces (Hartrees/Bohr)
 Number     Number              X              Y              Z
 -------------------------------------------------------------------
      1        6          -0.000003787   -0.000021967   -0.000000177
      2        6          -0.000016016    0.000017773   -0.000003815
      3        8          -0.000001570    0.000002292    0.000010885
      4        6           0.003004405   -0.000562109   -0.003475466
      5        6          -0.000003656    0.000003019    0.000001393
      6        1           0.000003142    0.000007540   -0.000002914
      7        1          -0.000000359    0.000000237    0.000002181
      8        1           0.000001485    0.000001761   -0.000008687
      9        7          -0.002990250    0.000560404    0.003474922
     10        1           0.000000784    0.000006284    0.000003550
     11        1           0.000002047    0.000002675   -0.000007758
     12        1          -0.000000502   -0.000006945   -0.000005403
     13        1          -0.000000868   -0.000007001    0.000002741
     14       35           0.000001217   -0.000001949   -0.000008495
     15        7           0.000004708    0.000000978    0.000003376
     16        1           0.000001287   -0.000000325    0.000002738
     17        1          -0.000002067   -0.000002666    0.000010930
 -------------------------------------------------------------------
 Cartesian Forces:  Max     0.003475466 RMS     0.000915594
 FormGI is forming the generalized inverse of G from B-inverse, IUseBI=4.

 GradGradGradGradGradGradGradGradGradGradGradGradGradGradGradGradGradGrad
 Berny optimization.
 Internal  Forces:  Max     0.004621700 RMS     0.000533681
 Search for a saddle point.
 Step number   1 out of a maximum of   70
 All quantities printed in internal units (Hartrees-Bohrs-Radians)
 Swapping is turned off.
 Second derivative matrix not updated -- analytic derivatives used.
 ITU=  0
     Eigenvalues ---   -0.03237  -0.00152   0.00060   0.00136   0.00674
     Eigenvalues ---    0.00840   0.01096   0.01540   0.01925   0.03185
     Eigenvalues ---    0.04172   0.04417   0.04513   0.04689   0.04826
     Eigenvalues ---    0.05843   0.08489   0.08623   0.09128   0.10029
     Eigenvalues ---    0.10351   0.11555   0.13251   0.13338   0.17030
     Eigenvalues ---    0.18053   0.18717   0.19791   0.23925   0.25149
     Eigenvalues ---    0.30202   0.34165   0.34498   0.34712   0.35932
     Eigenvalues ---    0.36016   0.36602   0.41189   0.45556   0.45614
     Eigenvalues ---    0.45924   0.47820   0.48780   0.49567   0.72126
 Eigenvectors required to have negative eigenvalues:
                          R6        D7        A10       A11       D10
   1                   -0.89241   0.17496   0.16699   0.15279   0.15061
                          R2        D9        D6        R1        A8
   1                    0.15059  -0.14990  -0.12555  -0.09873  -0.07235
 RFO step:  Lambda0=5.170914308D-04 Lambda=-1.51968620D-03.
 Linear search not attempted -- option 19 set.
 Maximum step size (   0.010) exceeded in Quadratic search.
    -- Step size scaled by   0.088
 Iteration  1 RMS(Cart)=  0.00197072 RMS(Int)=  0.00000159
 Iteration  2 RMS(Cart)=  0.00000217 RMS(Int)=  0.00000092
 Iteration  3 RMS(Cart)=  0.00000000 RMS(Int)=  0.00000092
 Variable       Old X    -DE/DX   Delta X   Delta X   Delta X     New X
                                 (Linear)    (Quad)   (Total)
    R1        2.71801   0.00003   0.00000   0.00114   0.00114   2.71915
    R2        2.62259   0.00001   0.00000  -0.00173  -0.00173   2.62086
    R3        3.63343  -0.00000   0.00000  -0.00016  -0.00016   3.63327
    R4        2.35040   0.00000   0.00000  -0.00047  -0.00047   2.34992
    R5        2.57135  -0.00001   0.00000  -0.00041  -0.00041   2.57095
    R6        3.54271  -0.00462   0.00000   0.00890   0.00890   3.55161
    R7        2.04754   0.00000   0.00000  -0.00016  -0.00016   2.04738
    R8        2.04856  -0.00000   0.00000  -0.00015  -0.00015   2.04842
    R9        2.05962   0.00000   0.00000   0.00012   0.00012   2.05974
   R10        2.05736  -0.00000   0.00000   0.00007   0.00007   2.05743
   R11        2.05725  -0.00000   0.00000   0.00007   0.00007   2.05732
   R12        2.76145  -0.00000   0.00000  -0.00030  -0.00030   2.76115
   R13        1.91464  -0.00000   0.00000  -0.00011  -0.00011   1.91453
   R14        1.91439   0.00000   0.00000  -0.00009  -0.00009   1.91430
   R15        1.89444  -0.00000   0.00000   0.00002   0.00002   1.89446
   R16        1.89549  -0.00000   0.00000   0.00003   0.00003   1.89552
    A1        2.11790   0.00000   0.00000   0.00017   0.00017   2.11807
    A2        2.09607  -0.00000   0.00000  -0.00020  -0.00020   2.09587
    A3        2.05115  -0.00000   0.00000   0.00031   0.00031   2.05147
    A4        2.11341   0.00000   0.00000  -0.00014  -0.00014   2.11326
    A5        2.08113  -0.00000   0.00000  -0.00031  -0.00031   2.08081
    A6        2.08852  -0.00000   0.00000   0.00046   0.00046   2.08898
    A7        1.97414   0.00000   0.00000   0.00009   0.00009   1.97423
    A8        2.07463  -0.00000   0.00000   0.00102   0.00102   2.07565
    A9        2.01060   0.00000   0.00000   0.00087   0.00087   2.01146
   A10        1.67010   0.00000   0.00000  -0.00255  -0.00255   1.66756
   A11        1.65905  -0.00000   0.00000  -0.00218  -0.00218   1.65687
   A12        1.99487  -0.00000   0.00000   0.00112   0.00111   1.99599
   A13        1.90472  -0.00000   0.00000  -0.00025  -0.00025   1.90447
   A14        1.90514  -0.00000   0.00000  -0.00027  -0.00027   1.90487
   A15        1.95076   0.00000   0.00000   0.00068   0.00068   1.95145
   A16        1.90035   0.00000   0.00000  -0.00031  -0.00031   1.90004
   A17        1.90088  -0.00000   0.00000   0.00007   0.00007   1.90095
   A18        1.90139  -0.00000   0.00000   0.00006   0.00006   1.90144
   A19        1.99384  -0.00000   0.00000  -0.00016  -0.00016   1.99367
   A20        1.81049   0.00000   0.00000  -0.00001  -0.00001   1.81048
   A21        1.84890   0.00000   0.00000  -0.00007  -0.00007   1.84883
   A22        1.95844   0.00000   0.00000   0.00007   0.00007   1.95851
   A23        1.95630   0.00000   0.00000   0.00008   0.00008   1.95638
   A24        1.88565  -0.00000   0.00000   0.00009   0.00009   1.88574
   A25        2.13862  -0.00000   0.00000   0.00004   0.00004   2.13866
   A26        2.06206   0.00000   0.00000   0.00010   0.00010   2.06215
   A27        2.08042   0.00000   0.00000  -0.00000  -0.00000   2.08042
    D1       -0.04624   0.00000   0.00000   0.00070   0.00070  -0.04554
    D2        3.11255   0.00000   0.00000   0.00055   0.00055   3.11310
    D3       -2.97972  -0.00000   0.00000  -0.00095  -0.00095  -2.98067
    D4        0.17906  -0.00000   0.00000  -0.00110  -0.00110   0.17796
    D5       -1.44143   0.00000   0.00000  -0.00171  -0.00171  -1.44314
    D6        2.90447  -0.00000   0.00000   0.00090   0.00091   2.90537
    D7        0.44110   0.00000   0.00000  -0.00388  -0.00388   0.43722
    D8        1.49721   0.00000   0.00000  -0.00016  -0.00016   1.49705
    D9       -0.44008   0.00000   0.00000   0.00246   0.00246  -0.43762
   D10       -2.90345   0.00000   0.00000  -0.00232  -0.00233  -2.90577
   D11       -0.04715   0.00000   0.00000   0.00119   0.00119  -0.04597
   D12       -3.11865  -0.00000   0.00000  -0.00117  -0.00117  -3.11983
   D13        3.11138   0.00000   0.00000   0.00104   0.00104   3.11243
   D14        0.03988  -0.00000   0.00000  -0.00132  -0.00132   0.03857
   D15        3.12716  -0.00000   0.00000  -0.00007  -0.00007   3.12708
   D16        0.98974   0.00000   0.00000  -0.00005  -0.00005   0.98969
   D17       -0.99399  -0.00000   0.00000  -0.00012  -0.00012  -0.99411
   D18       -0.97870   0.00000   0.00000  -0.00034  -0.00034  -0.97904
   D19       -3.11611   0.00000   0.00000  -0.00033  -0.00033  -3.11644
   D20        1.18334  -0.00000   0.00000  -0.00039  -0.00040   1.18295
   D21        1.02990  -0.00000   0.00000   0.00009   0.00010   1.03000
   D22       -1.10751   0.00000   0.00000   0.00011   0.00011  -1.10740
   D23       -3.09125  -0.00000   0.00000   0.00004   0.00004  -3.09120
   D24       -3.12213   0.00000   0.00000  -0.00011  -0.00011  -3.12224
   D25       -1.06764  -0.00000   0.00000  -0.00019  -0.00019  -1.06783
   D26        1.05784   0.00000   0.00000   0.00005   0.00005   1.05788
   D27       -1.01627   0.00000   0.00000   0.00006   0.00006  -1.01621
   D28        1.03822  -0.00000   0.00000  -0.00002  -0.00002   1.03820
   D29       -3.11948   0.00000   0.00000   0.00021   0.00021  -3.11927
   D30        1.05433   0.00000   0.00000  -0.00024  -0.00024   1.05409
   D31        3.10882  -0.00000   0.00000  -0.00032  -0.00032   3.10850
   D32       -1.04888   0.00000   0.00000  -0.00009  -0.00009  -1.04898
         Item               Value     Threshold  Converged?
 Maximum Force            0.004622     0.000450     NO 
 RMS     Force            0.000534     0.000300     NO 
 Maximum Displacement     0.005434     0.001800     NO 
 RMS     Displacement     0.001972     0.001200     NO 
 Predicted change in Energy= 3.930715D-05
 GradGradGradGradGradGradGradGradGradGradGradGradGradGradGradGradGradGrad

                          Input orientation:                          
 ---------------------------------------------------------------------
 Center     Atomic      Atomic             Coordinates (Angstroms)
 Number     Number       Type             X           Y           Z
 ---------------------------------------------------------------------
      1          6           0       -0.157556    0.284709    0.411738
      2          6           0       -0.551351    1.622745    0.058110
      3          8           0        0.238467    2.576212    0.174065
      4          6           0        1.129860    0.001437    0.842794
      5          6           0        3.716941   -0.504948   -0.142960
      6          1           0        4.392836   -0.609311   -0.991669
      7          1           0        4.063098    0.310136    0.490427
      8          1           0        3.724584   -1.427511    0.435020
      9          7           0        2.348191   -0.224265   -0.570356
     10          1           0        2.279054    0.643625   -1.088444
     11          1           0        1.969833   -0.965497   -1.147938
     12          1           0        1.328212   -0.957594    1.306181
     13          1           0        1.660707    0.833192    1.291554
     14         35           0       -1.296895   -1.201834   -0.022603
     15          7           0       -1.815890    1.846051   -0.391334
     16          1           0       -2.479383    1.106361   -0.524190
     17          1           0       -2.067447    2.781600   -0.651345
 ---------------------------------------------------------------------
                    Distance matrix (angstroms):
                    1          2          3          4          5
     1  C    0.000000
     2  C    1.438912   0.000000
     3  O    2.337585   1.243526   0.000000
     4  C    1.386900   2.463908   2.805574   0.000000
     5  C    3.992865   4.773450   4.657664   2.814450   0.000000
     6  H    4.845088   5.525314   5.363326   3.792793   1.089969
     7  H    4.221464   4.816948   4.456791   2.970412   1.088745
     8  H    4.243024   5.265905   5.315159   2.990112   1.088688
     9  N    2.739038   3.494819   3.584378   1.879432   1.461139
    10  H    2.883822   3.206939   3.081042   2.337249   2.068980
    11  H    2.919141   3.809188   4.158007   2.367178   2.067480
    12  H    2.133272   3.427622   3.867430   1.083425   2.830358
    13  H    2.093081   2.652919   2.511905   1.083975   2.841927
    14  Br   1.922643   2.922430   4.082847   2.843574   5.063467
    15  N    2.415116   1.360486   2.252374   3.688240   6.016736
    16  H    2.634759   2.079190   3.167764   4.014491   6.413742
    17  H    3.318478   2.035883   2.457788   4.492720   6.672256
                    6          7          8          9         10
     6  H    0.000000
     7  H    1.775026   0.000000
     8  H    1.775234   1.771181   0.000000
     9  N    2.122813   2.086085   2.086394   0.000000
    10  H    2.459123   2.405590   2.949594   1.013127   0.000000
    11  H    2.454023   2.948430   2.407980   1.013006   1.639643
    12  H    3.846211   3.122851   2.592749   2.258212   3.033518
    13  H    3.841673   2.585899   3.178682   2.248901   2.466309
    14  Br   5.802001   5.592744   5.047337   3.813441   4.162829
    15  N    6.703542   6.139954   6.488138   4.653797   4.324391
    16  H    7.098553   6.668394   6.769772   5.007811   4.814066
    17  H    7.304064   6.707858   7.241853   5.342251   4.863545
                   11         12         13         14         15
    11  H    0.000000
    12  H    2.536620   0.000000
    13  H    3.046631   1.821451   0.000000
    14  Br   3.463199   2.952373   3.823055   0.000000
    15  N    4.775871   4.541735   3.993084   3.113667   0.000000
    16  H    4.947442   4.701909   4.529006   2.641521   1.002504
    17  H    5.530549   5.417009   4.633604   4.105705   1.003065
                   16         17
    16  H    0.000000
    17  H    1.729822   0.000000
 Stoichiometry    C4H9BrN2O
 Framework group  C1[X(C4H9BrN2O)]
 Deg. of freedom    45
 Full point group                 C1      NOp   1
 Largest Abelian subgroup         C1      NOp   1
 Largest concise Abelian subgroup C1      NOp   1
                         Standard orientation:                         
 ---------------------------------------------------------------------
 Center     Atomic      Atomic             Coordinates (Angstroms)
 Number     Number       Type             X           Y           Z
 ---------------------------------------------------------------------
      1          6           0       -0.157269    0.284330    0.411498
      2          6           0       -0.552289    1.621827    0.057198
      3          8           0        0.236576    2.576112    0.172904
      4          6           0        1.130328    0.002498    0.842956
      5          6           0        3.718113   -0.501803   -0.142020
      6          1           0        4.394291   -0.605881   -0.990538
      7          1           0        4.063341    0.313895    0.491083
      8          1           0        3.726529   -1.424105    0.436367
      9          7           0        2.349183   -0.222638   -0.569833
     10          1           0        2.279313    0.644956   -1.088317
     11          1           0        1.971670   -0.964491   -1.147171
     12          1           0        1.329513   -0.956136    1.306806
     13          1           0        1.660270    0.834966    1.291464
     14         35           0       -1.295069   -1.203511   -0.022434
     15          7           0       -1.816948    1.843706   -0.392615
     16          1           0       -2.479693    1.103313   -0.525289
     17          1           0       -2.069358    2.778896   -0.653091
 ---------------------------------------------------------------------
 Rotational constants (GHZ):           1.4852527           0.9318916           0.6086046
 Standard basis: def2TZVP (5D, 7F)
 There are   361 symmetry adapted cartesian basis functions of A   symmetry.
 There are   319 symmetry adapted basis functions of A   symmetry.
   319 basis functions,   543 primitive gaussians,   361 cartesian basis functions
    45 alpha electrons       45 beta electrons
       nuclear repulsion energy       604.3656898431 Hartrees.
 NAtoms=   17 NActive=   17 NUniq=   17 SFac= 1.00D+00 NAtFMM=   60 NAOKFM=F Big=F
 Integral buffers will be    131072 words long.
 Raffenetti 2 integral format.
 Two-electron integral symmetry is turned on.
 Nuclear repulsion after empirical dispersion term =      604.3565179047 Hartrees.
 ------------------------------------------------------------------------------
 Polarizable Continuum Model (PCM)
 =================================
 Model                : PCM.
 Atomic radii         : UFF (Universal Force Field).
 Polarization charges : Total charges.
 Charge compensation  : None.
 Solution method      : Matrix inversion.
 Cavity type          : Scaled VdW (van der Waals Surface) (Alpha=1.100).
 Cavity algorithm     : GePol (No added spheres)
                        Default sphere list used, NSphG=   17.
                        Lebedev-Laikov grids with approx.  5.0 points / Ang**2.
                        Smoothing algorithm: York/Karplus (Gamma=1.0000).
                        Polarization charges: spherical gaussians, with
                                              point-specific exponents (IZeta= 3).
                        Self-potential: point-specific (ISelfS= 7).
                        Self-field    : sphere-specific E.n sum rule (ISelfD= 2).
 1st derivatives      : Analytical E(r).r(x)/FMM algorithm (CHGder, D1EAlg=3).
                        Cavity 1st derivative terms included.
 Solvent              : Water, Eps=  78.355300 Eps(inf)=   1.777849
 ------------------------------------------------------------------------------
 Spheres list:
 ISph  on   Nord     Re0    Alpha      Xe            Ye            Ze
    1   C      1    1.9255  1.100     -0.157269      0.284330      0.411498
    2   C      2    1.9255  1.100     -0.552289      1.621827      0.057198
    3   O      3    1.7500  1.100      0.236576      2.576112      0.172904
    4   C      4    1.9255  1.100      1.130328      0.002498      0.842956
    5   C      5    1.9255  1.100      3.718113     -0.501803     -0.142020
    6   H      6    1.4430  1.100      4.394291     -0.605881     -0.990538
    7   H      7    1.4430  1.100      4.063341      0.313895      0.491083
    8   H      8    1.4430  1.100      3.726529     -1.424105      0.436367
    9   N      9    1.8300  1.100      2.349183     -0.222638     -0.569833
   10   H     10    1.4430  1.100      2.279313      0.644956     -1.088317
   11   H     11    1.4430  1.100      1.971670     -0.964491     -1.147171
   12   H     12    1.4430  1.100      1.329513     -0.956136      1.306806
   13   H     13    1.4430  1.100      1.660270      0.834966      1.291464
   14  Br     14    2.0945  1.100     -1.295069     -1.203511     -0.022434
   15   N     15    1.8300  1.100     -1.816948      1.843706     -0.392615
   16   H     16    1.4430  1.100     -2.479693      1.103313     -0.525289
   17   H     17    1.4430  1.100     -2.069358      2.778896     -0.653091
 ------------------------------------------------------------------------------
 One-electron integrals computed using PRISM.
   1 Symmetry operations used in ECPInt.
 ECPInt:  NShTT=    8385 NPrTT=   27508 LenC2=    8001 LenP2D=   19964.
 LDataN:  DoStor=T MaxTD1= 6 Len=  172
 NBasis=   319 RedAO= T EigKep=  1.15D-04  NBF=   319
 NBsUse=   319 1.00D-06 EigRej= -1.00D+00 NBFU=   319
 Initial guess from the checkpoint file:  "/beegfs/scratch/user/q/tla25/Gau-14038.chk"
 B after Tr=     0.000000    0.000000    0.000000
         Rot=    1.000000    0.000131    0.000107   -0.000445 Ang=   0.05 deg.
 Requested convergence on RMS density matrix=1.00D-08 within 128 cycles.
 Requested convergence on MAX density matrix=1.00D-06.
 Requested convergence on             energy=1.00D-06.
 No special actions if energy rises.
 Inv3:  Mode=1 IEnd=     7096332.
 Iteration    1 A*A^-1 deviation from unit magnitude is 4.88D-15 for   1538.
 Iteration    1 A*A^-1 deviation from orthogonality  is 1.58D-15 for   1172    180.
 Iteration    1 A^-1*A deviation from unit magnitude is 4.44D-15 for   1538.
 Iteration    1 A^-1*A deviation from orthogonality  is 1.55D-15 for   1102    383.
 Error on total polarization charges =  0.01350
 SCF Done:  E(RwB97XD) =  -2916.79300085     A.U. after   10 cycles
            NFock= 10  Conv=0.52D-08     -V/T= 2.0018
   1 Symmetry operations used in ECPInt.
 ECPInt:  NShTT=    8385 NPrTT=   27508 LenC2=    8001 LenP2D=   19964.
 LDataN:  DoStor=T MaxTD1= 7 Len=  274
 D1PCM: PCM CHGder 1st derivatives, ID1Alg=3 FixD1E=F DoIter=F DoCFld=F I1PDM=0.
 Calling FoFJK, ICntrl=      2127 FMM=F ISym2X=0 I1Cent= 0 IOpClX= 0 NMat=1 NMatS=1 NMatT=0.
 ***** Axes restored to original set *****
 -------------------------------------------------------------------
 Center     Atomic                   Forces (Hartrees/Bohr)
 Number     Number              X              Y              Z
 -------------------------------------------------------------------
      1        6          -0.000004104   -0.000020567   -0.000006770
      2        6          -0.000016869    0.000016754    0.000004393
      3        8          -0.000002259    0.000000599    0.000009963
      4        6           0.002747848   -0.000516339   -0.003165075
      5        6          -0.000002430    0.000004349    0.000001795
      6        1           0.000003037    0.000007627   -0.000002749
      7        1          -0.000000330    0.000000153    0.000001766
      8        1           0.000001493    0.000001884   -0.000008475
      9        7          -0.002733225    0.000514561    0.003170653
     10        1           0.000001491    0.000005845    0.000003115
     11        1           0.000002862    0.000001631   -0.000009581
     12        1          -0.000001312   -0.000007187   -0.000005811
     13        1          -0.000000559   -0.000005471    0.000002380
     14       35           0.000000729   -0.000002494   -0.000007702
     15        7           0.000007881   -0.000000691   -0.000008714
     16        1          -0.000000902    0.000001672    0.000006161
     17        1          -0.000003350   -0.000002327    0.000014653
 -------------------------------------------------------------------
 Cartesian Forces:  Max     0.003170653 RMS     0.000835786

 GradGradGradGradGradGradGradGradGradGradGradGradGradGradGradGradGradGrad
 Berny optimization.
 FormGI is forming the generalized inverse of G from B-inverse, IUseBI=4.
 Internal  Forces:  Max     0.004217166 RMS     0.000486971
 Search for a saddle point.
 Step number   2 out of a maximum of   70
 All quantities printed in internal units (Hartrees-Bohrs-Radians)
 Swapping is turned off.
 Update second derivatives using D2CorX and points    1    2
 ITU=  0  0
     Eigenvalues ---   -0.03255  -0.00151   0.00059   0.00136   0.00679
     Eigenvalues ---    0.00839   0.01096   0.01540   0.01925   0.03185
     Eigenvalues ---    0.04172   0.04419   0.04511   0.04689   0.04826
     Eigenvalues ---    0.05842   0.08489   0.08623   0.09130   0.10029
     Eigenvalues ---    0.10351   0.11555   0.13251   0.13338   0.17030
     Eigenvalues ---    0.18053   0.18717   0.19791   0.23925   0.25149
     Eigenvalues ---    0.30203   0.34165   0.34498   0.34712   0.35932
     Eigenvalues ---    0.36016   0.36602   0.41189   0.45556   0.45614
     Eigenvalues ---    0.45924   0.47820   0.48780   0.49567   0.72126
 Eigenvectors required to have negative eigenvalues:
                          R6        D7        A10       A11       D9
   1                   -0.89287   0.17421   0.16666   0.15295  -0.15058
                          R2        D10       D6        R1        A8
   1                    0.15006   0.14984  -0.12622  -0.09876  -0.07199
 RFO step:  Lambda0=4.298103751D-04 Lambda=-1.50813902D-03.
 Linear search not attempted -- option 19 set.
 Maximum step size (   0.010) exceeded in Quadratic search.
    -- Step size scaled by   0.097
 Iteration  1 RMS(Cart)=  0.00196719 RMS(Int)=  0.00000160
 Iteration  2 RMS(Cart)=  0.00000216 RMS(Int)=  0.00000092
 Iteration  3 RMS(Cart)=  0.00000000 RMS(Int)=  0.00000092
 Variable       Old X    -DE/DX   Delta X   Delta X   Delta X     New X
                                 (Linear)    (Quad)   (Total)
    R1        2.71915   0.00002   0.00000   0.00114   0.00114   2.72029
    R2        2.62086   0.00002   0.00000  -0.00172  -0.00172   2.61914
    R3        3.63327   0.00000   0.00000  -0.00017  -0.00017   3.63310
    R4        2.34992   0.00000   0.00000  -0.00047  -0.00047   2.34945
    R5        2.57095  -0.00001   0.00000  -0.00041  -0.00041   2.57054
    R6        3.55161  -0.00422   0.00000   0.00890   0.00890   3.56051
    R7        2.04738   0.00000   0.00000  -0.00016  -0.00016   2.04722
    R8        2.04842   0.00000   0.00000  -0.00014  -0.00014   2.04827
    R9        2.05974   0.00000   0.00000   0.00012   0.00012   2.05987
   R10        2.05743  -0.00000   0.00000   0.00007   0.00007   2.05750
   R11        2.05732  -0.00000   0.00000   0.00007   0.00007   2.05739
   R12        2.76115  -0.00000   0.00000  -0.00030  -0.00030   2.76086
   R13        1.91453  -0.00000   0.00000  -0.00011  -0.00011   1.91442
   R14        1.91430   0.00001   0.00000  -0.00009  -0.00009   1.91422
   R15        1.89446  -0.00000   0.00000   0.00001   0.00001   1.89447
   R16        1.89552  -0.00000   0.00000   0.00003   0.00003   1.89555
    A1        2.11807   0.00000   0.00000   0.00015   0.00015   2.11822
    A2        2.09587  -0.00000   0.00000  -0.00020  -0.00020   2.09567
    A3        2.05147  -0.00000   0.00000   0.00033   0.00033   2.05180
    A4        2.11326   0.00000   0.00000  -0.00015  -0.00015   2.11311
    A5        2.08081   0.00000   0.00000  -0.00030  -0.00030   2.08052
    A6        2.08898  -0.00000   0.00000   0.00045   0.00045   2.08943
    A7        1.97423   0.00000   0.00000   0.00010   0.00010   1.97433
    A8        2.07565  -0.00000   0.00000   0.00101   0.00101   2.07666
    A9        2.01146  -0.00000   0.00000   0.00086   0.00086   2.01232
   A10        1.66756   0.00000   0.00000  -0.00253  -0.00253   1.66503
   A11        1.65687  -0.00000   0.00000  -0.00220  -0.00220   1.65468
   A12        1.99599   0.00000   0.00000   0.00111   0.00110   1.99709
   A13        1.90447  -0.00000   0.00000  -0.00026  -0.00026   1.90421
   A14        1.90487  -0.00000   0.00000  -0.00027  -0.00027   1.90460
   A15        1.95145   0.00000   0.00000   0.00068   0.00068   1.95213
   A16        1.90004   0.00000   0.00000  -0.00031  -0.00031   1.89973
   A17        1.90095   0.00000   0.00000   0.00007   0.00007   1.90103
   A18        1.90144  -0.00000   0.00000   0.00006   0.00006   1.90150
   A19        1.99367  -0.00000   0.00000  -0.00017  -0.00017   1.99351
   A20        1.81048   0.00000   0.00000  -0.00003  -0.00003   1.81045
   A21        1.84883   0.00000   0.00000  -0.00002  -0.00002   1.84880
   A22        1.95851   0.00000   0.00000   0.00005   0.00005   1.95856
   A23        1.95638  -0.00000   0.00000   0.00008   0.00008   1.95646
   A24        1.88574  -0.00000   0.00000   0.00009   0.00009   1.88583
   A25        2.13866   0.00000   0.00000   0.00006   0.00006   2.13872
   A26        2.06215   0.00000   0.00000   0.00009   0.00009   2.06225
   A27        2.08042  -0.00000   0.00000  -0.00001  -0.00001   2.08041
    D1       -0.04554   0.00000   0.00000   0.00075   0.00075  -0.04478
    D2        3.11310   0.00000   0.00000   0.00058   0.00058   3.11368
    D3       -2.98067  -0.00000   0.00000  -0.00091  -0.00091  -2.98158
    D4        0.17796  -0.00000   0.00000  -0.00108  -0.00108   0.17688
    D5       -1.44314   0.00000   0.00000  -0.00166  -0.00166  -1.44480
    D6        2.90537  -0.00000   0.00000   0.00095   0.00095   2.90632
    D7        0.43722  -0.00000   0.00000  -0.00384  -0.00384   0.43338
    D8        1.49705   0.00000   0.00000  -0.00010  -0.00010   1.49695
    D9       -0.43762   0.00000   0.00000   0.00251   0.00251  -0.43512
   D10       -2.90577   0.00000   0.00000  -0.00228  -0.00228  -2.90805
   D11       -0.04597   0.00000   0.00000   0.00131   0.00131  -0.04466
   D12       -3.11983  -0.00000   0.00000  -0.00127  -0.00127  -3.12109
   D13        3.11243   0.00000   0.00000   0.00115   0.00115   3.11357
   D14        0.03857  -0.00000   0.00000  -0.00143  -0.00143   0.03714
   D15        3.12708  -0.00000   0.00000  -0.00021  -0.00021   3.12687
   D16        0.98969  -0.00000   0.00000  -0.00016  -0.00016   0.98953
   D17       -0.99411  -0.00000   0.00000  -0.00024  -0.00024  -0.99435
   D18       -0.97904  -0.00000   0.00000  -0.00048  -0.00048  -0.97952
   D19       -3.11644   0.00000   0.00000  -0.00043  -0.00043  -3.11687
   D20        1.18295  -0.00000   0.00000  -0.00050  -0.00050   1.18244
   D21        1.03000  -0.00000   0.00000  -0.00004  -0.00003   1.02996
   D22       -1.10740   0.00000   0.00000   0.00002   0.00002  -1.10738
   D23       -3.09120  -0.00000   0.00000  -0.00006  -0.00006  -3.09126
   D24       -3.12224   0.00000   0.00000  -0.00007  -0.00007  -3.12230
   D25       -1.06783  -0.00000   0.00000  -0.00018  -0.00018  -1.06801
   D26        1.05788  -0.00000   0.00000   0.00003   0.00003   1.05791
   D27       -1.01621   0.00000   0.00000   0.00009   0.00009  -1.01611
   D28        1.03820  -0.00000   0.00000  -0.00002  -0.00002   1.03818
   D29       -3.11927  -0.00000   0.00000   0.00019   0.00019  -3.11909
   D30        1.05409   0.00000   0.00000  -0.00020  -0.00020   1.05389
   D31        3.10850   0.00000   0.00000  -0.00032  -0.00032   3.10818
   D32       -1.04898  -0.00000   0.00000  -0.00011  -0.00011  -1.04909
         Item               Value     Threshold  Converged?
 Maximum Force            0.004217     0.000450     NO 
 RMS     Force            0.000487     0.000300     NO 
 Maximum Displacement     0.005484     0.001800     NO 
 RMS     Displacement     0.001968     0.001200     NO 
 Predicted change in Energy= 3.569855D-05
 GradGradGradGradGradGradGradGradGradGradGradGradGradGradGradGradGradGrad

                          Input orientation:                          
 ---------------------------------------------------------------------
 Center     Atomic      Atomic             Coordinates (Angstroms)
 Number     Number       Type             X           Y           Z
 ---------------------------------------------------------------------
      1          6           0       -0.158461    0.285113    0.411757
      2          6           0       -0.552758    1.623786    0.058656
      3          8           0        0.236678    2.577137    0.175472
      4          6           0        1.127764    0.002143    0.843633
      5          6           0        3.718457   -0.505560   -0.143042
      6          1           0        4.395737   -0.610857   -0.990613
      7          1           0        4.064055    0.310032    0.490055
      8          1           0        3.725604   -1.427530    0.435959
      9          7           0        2.350250   -0.225305   -0.571921
     10          1           0        2.281520    0.642123   -1.090722
     11          1           0        1.972361   -0.967018   -1.149113
     12          1           0        1.327221   -0.957195    1.305705
     13          1           0        1.659881    0.834075    1.290376
     14         35           0       -1.298065   -1.201097   -0.022641
     15          7           0       -1.817050    1.846479   -0.391135
     16          1           0       -2.480399    1.106590   -0.523662
     17          1           0       -2.069534    2.782192   -0.649713
 ---------------------------------------------------------------------
                    Distance matrix (angstroms):
                    1          2          3          4          5
     1  C    0.000000
     2  C    1.439513   0.000000
     3  O    2.337807   1.243275   0.000000
     4  C    1.385988   2.463751   2.805542   0.000000
     5  C    3.995430   4.776827   4.661250   2.818329   0.000000
     6  H    4.848724   5.530118   5.368504   3.797351   1.090034
     7  H    4.223316   4.819442   4.459545   2.973486   1.088779
     8  H    4.244961   5.268517   5.317689   2.993148   1.088725
     9  N    2.742587   3.499175   3.588797   1.884143   1.460982
    10  H    2.887630   3.212144   3.086893   2.341464   2.068831
    11  H    2.923106   3.814079   4.162710   2.371424   2.067359
    12  H    2.133008   3.427962   3.867585   1.083340   2.832111
    13  H    2.092773   2.652650   2.511331   1.083899   2.843772
    14  Br   1.922555   2.922679   4.082859   2.843037   5.065941
    15  N    2.415247   1.360271   2.252267   3.687568   6.019591
    16  H    2.634621   2.079035   3.167618   4.013495   6.416363
    17  H    3.318784   2.035756   2.457966   4.492379   6.675842
                    6          7          8          9         10
     6  H    0.000000
     7  H    1.774945   0.000000
     8  H    1.775146   1.771044   0.000000
     9  N    2.123198   2.086026   2.086328   0.000000
    10  H    2.459653   2.405530   2.949508   1.013069   0.000000
    11  H    2.454532   2.948375   2.407984   1.012961   1.639611
    12  H    3.848223   3.124326   2.594207   2.260029   3.035024
    13  H    3.843910   2.587506   3.179951   2.251009   2.468381
    14  Br   5.805578   5.594524   5.049637   3.816291   4.165535
    15  N    6.707951   6.142033   6.490318   4.657399   4.328761
    16  H    7.102740   6.670233   6.771788   5.011132   4.818004
    17  H    7.309496   6.710557   7.244589   5.346549   4.868887
                   11         12         13         14         15
    11  H    0.000000
    12  H    2.538195   0.000000
    13  H    3.048390   1.821962   0.000000
    14  Br   3.466903   2.952307   3.823007   0.000000
    15  N    4.780160   4.541618   3.992680   3.113334   0.000000
    16  H    4.951576   4.701464   4.528457   2.640900   1.002512
    17  H    5.535602   5.417068   4.633320   4.105481   1.003080
                   16         17
    16  H    0.000000
    17  H    1.729838   0.000000
 Stoichiometry    C4H9BrN2O
 Framework group  C1[X(C4H9BrN2O)]
 Deg. of freedom    45
 Full point group                 C1      NOp   1
 Largest Abelian subgroup         C1      NOp   1
 Largest concise Abelian subgroup C1      NOp   1
                         Standard orientation:                         
 ---------------------------------------------------------------------
 Center     Atomic      Atomic             Coordinates (Angstroms)
 Number     Number       Type             X           Y           Z
 ---------------------------------------------------------------------
      1          6           0       -0.157843    0.284362    0.411289
      2          6           0       -0.554510    1.621990    0.056882
      3          8           0        0.233076    2.576926    0.173232
      4          6           0        1.128726    0.004185    0.843962
      5          6           0        3.720800   -0.499467   -0.141159
      6          1           0        4.398647   -0.604204   -0.988347
      7          1           0        4.064585    0.317311    0.491396
      8          1           0        3.729434   -1.420931    0.438627
      9          7           0        2.352254   -0.222156   -0.570868
     10          1           0        2.282114    0.644700   -1.090435
     11          1           0        1.976015   -0.965070   -1.147595
     12          1           0        1.329791   -0.954384    1.306934
     13          1           0        1.659079    0.837496    1.290230
     14         35           0       -1.294453   -1.204362   -0.022342
     15          7           0       -1.819024    1.841916   -0.393645
     16          1           0       -2.480919    1.100665   -0.525832
     17          1           0       -2.073160    2.776932   -0.653126
 ---------------------------------------------------------------------
 Rotational constants (GHZ):           1.4846148           0.9309766           0.6081740
 Standard basis: def2TZVP (5D, 7F)
 There are   361 symmetry adapted cartesian basis functions of A   symmetry.
 There are   319 symmetry adapted basis functions of A   symmetry.
   319 basis functions,   543 primitive gaussians,   361 cartesian basis functions
    45 alpha electrons       45 beta electrons
       nuclear repulsion energy       604.2289332633 Hartrees.
 NAtoms=   17 NActive=   17 NUniq=   17 SFac= 1.00D+00 NAtFMM=   60 NAOKFM=F Big=F
 Integral buffers will be    131072 words long.
 Raffenetti 2 integral format.
 Two-electron integral symmetry is turned on.
 Nuclear repulsion after empirical dispersion term =      604.2197674379 Hartrees.
 ------------------------------------------------------------------------------
 Polarizable Continuum Model (PCM)
 =================================
 Model                : PCM.
 Atomic radii         : UFF (Universal Force Field).
 Polarization charges : Total charges.
 Charge compensation  : None.
 Solution method      : Matrix inversion.
 Cavity type          : Scaled VdW (van der Waals Surface) (Alpha=1.100).
 Cavity algorithm     : GePol (No added spheres)
                        Default sphere list used, NSphG=   17.
                        Lebedev-Laikov grids with approx.  5.0 points / Ang**2.
                        Smoothing algorithm: York/Karplus (Gamma=1.0000).
                        Polarization charges: spherical gaussians, with
                                              point-specific exponents (IZeta= 3).
                        Self-potential: point-specific (ISelfS= 7).
                        Self-field    : sphere-specific E.n sum rule (ISelfD= 2).
 1st derivatives      : Analytical E(r).r(x)/FMM algorithm (CHGder, D1EAlg=3).
                        Cavity 1st derivative terms included.
 Solvent              : Water, Eps=  78.355300 Eps(inf)=   1.777849
 ------------------------------------------------------------------------------
 Spheres list:
 ISph  on   Nord     Re0    Alpha      Xe            Ye            Ze
    1   C      1    1.9255  1.100     -0.157843      0.284362      0.411289
    2   C      2    1.9255  1.100     -0.554510      1.621990      0.056882
    3   O      3    1.7500  1.100      0.233076      2.576926      0.173232
    4   C      4    1.9255  1.100      1.128726      0.004185      0.843962
    5   C      5    1.9255  1.100      3.720800     -0.499467     -0.141159
    6   H      6    1.4430  1.100      4.398647     -0.604204     -0.988347
    7   H      7    1.4430  1.100      4.064585      0.317311      0.491396
    8   H      8    1.4430  1.100      3.729434     -1.420931      0.438627
    9   N      9    1.8300  1.100      2.352254     -0.222156     -0.570868
   10   H     10    1.4430  1.100      2.282114      0.644700     -1.090435
   11   H     11    1.4430  1.100      1.976015     -0.965070     -1.147595
   12   H     12    1.4430  1.100      1.329791     -0.954384      1.306934
   13   H     13    1.4430  1.100      1.659079      0.837496      1.290230
   14  Br     14    2.0945  1.100     -1.294453     -1.204362     -0.022342
   15   N     15    1.8300  1.100     -1.819024      1.841916     -0.393645
   16   H     16    1.4430  1.100     -2.480919      1.100665     -0.525832
   17   H     17    1.4430  1.100     -2.073160      2.776932     -0.653126
[...]
   xx         0.121268D+03      0.179700D+02      0.199943D+02
   yx        -0.197546D+02     -0.292733D+01     -0.325709D+01
   yy         0.115546D+03      0.171222D+02      0.190510D+02
   zx         0.244222D+02      0.361900D+01      0.402668D+01
   zy         0.386028D+01      0.572035D+00      0.636475D+00
   zz         0.150180D+03      0.222544D+02      0.247613D+02

 ----------------------------------------------------------------------
 1\1\GINC-NODE-AS-NGPU-001\Freq\RwB97XD\def2TZVP\C4H9Br1N2O1\TLA25\09-F
 eb-2021\0\\#N Geom=AllCheck Guess=TCheck SCRF=Check GenChk RwB97XD/def
 2TZVP Freq\\0_iteration/TS-267-0.out\\0,1\C,-0.1673248534,0.290441883,
 0.3819286888\C,-0.5664514405,1.6332346587,0.0294289912\O,0.2147491593,
 2.5877460053,0.1575038074\C,1.1027303231,0.0138243464,0.8373234283\C,3
 .7408521479,-0.5160851558,-0.1303128659\H,4.4402563209,-0.6377913453,-
 0.9583600685\H,4.0758976137,0.3082942767,0.4976283168\H,3.7351108302,-
 1.427953919,0.4651725942\N,2.3832604968,-0.2407417774,-0.5901365591\H,
 2.3262822939,0.6186098434,-1.1225621535\H,2.0154317131,-0.9902061355,-
 1.1630900499\H,1.3093116989,-0.9462348614,1.2925764327\H,1.6434169754,
 0.8499482846,1.2636145026\Br,-1.3051993567,-1.1948541651,-0.0535280536
 \N,-1.819740052,1.8421585832,-0.4623749921\H,-2.5241723462,1.128718250
 6,-0.4142658007\H,-2.1211515243,2.7960012277,-0.5514962188\\Version=ES
 64L-G16RevA.03\State=1-A\HF=-2916.792883\RMSD=9.165e-10\RMSF=4.344e-06
 \ZeroPoint=0.13746\Thermal=0.1477045\Dipole=1.8572739,-1.4247132,-0.75
 43699\DipoleDeriv=-1.2963802,1.3101978,0.3289366,1.5450942,-0.5328533,
 0.2106214,-0.3596563,0.7269366,-0.4757897,2.1052258,-0.2690197,0.55739
 ,-0.9062911,2.7225512,-0.1649792,0.6941443,-0.4884395,0.5573114,-0.993
 8249,-0.608446,-0.1680124,-0.2457868,-2.0552941,-0.10012,-0.0738381,0.
 0021373,-0.5711126,2.9015402,-1.0300453,-0.5218874,-0.8369268,0.124059
 6,0.0418807,-1.3391913,0.2258237,0.5984121,0.5975527,-0.0938019,0.0887
 031,-0.096435,0.1843722,-0.0190481,0.4800192,-0.1409196,0.1651632,-0.2
 495667,0.0859084,0.08808,0.0687415,0.0868974,-0.0149341,0.051243,0.000
 7867,-0.040498,0.0256833,0.0181819,-0.0204636,-0.0683218,-0.0361858,-0
 .1086722,-0.1024066,-0.0781507,0.0308341,0.0320925,-0.0446986,0.019474
 8,0.0414855,-0.0604944,0.10706,-0.0613185,0.1147573,0.0385948,-1.78592
 69,0.4790862,0.1813721,0.3492853,-0.2674922,-0.027831,1.1531336,-0.315
 0761,-0.5716867,0.1577099,0.0113887,-0.0273108,0.0462684,0.1924308,0.0
 215682,-0.059081,0.0380252,0.2121592,0.140632,0.0222474,-0.0373178,-0.
 0236959,0.2094176,-0.0127353,-0.0539873,-0.0242427,0.2084628,0.0240319
 ,0.0581259,0.0072289,0.100506,-0.0400075,0.0803579,0.1831044,-0.024374
 6,0.0301126,-0.0888596,-0.0727877,-0.0450668,-0.0801884,0.0632061,-0.0
 679231,0.1521064,-0.0756434,0.0483493,-0.3824791,-0.1333459,-0.0653053
 ,-0.2547253,-0.4885103,-0.0354558,-0.1149916,-0.1032076,-0.1256076,-1.
 6397462,0.3356027,-0.3186638,0.4023704,-0.5881906,0.0532478,-0.6712036
 ,0.1683698,-0.8674043,0.2485739,-0.0382469,-0.0300983,-0.0046259,0.275
 3175,0.0383257,0.07155,0.029261,0.3695776,0.2037415,-0.0303469,-0.0370
 594,-0.0367542,0.2107757,-0.0013628,0.0503733,-0.0560434,0.3931219\Pol
 ar=163.4057156,-6.8006472,131.4914757,4.7494333,1.2485306,92.0965004\Q
 uadrupole=13.6402669,-10.7754202,-2.8648466,-7.4765872,-1.1299491,-1.1
 709782\PG=C01 [X(C4H9Br1N2O1)]\NImag=1\\0.53065076,-0.06726135,0.45873
 195,0.16732310,-0.05943310,0.14662986,-0.09449018,0.06013788,-0.014434
 30,0.68639983,0.00533863,-0.19574059,0.00636555,0.11751482,0.72217471,
 -0.01525102,0.04049265,-0.07067132,0.14183609,-0.02921639,0.26396883,0
 .02208457,-0.02770290,0.00850761,-0.27703636,-0.20744907,-0.03706526,0
 .33603961,-0.00342342,-0.06962030,0.01732473,-0.22553584,-0.36815838,-
 0.03620907,0.28544434,0.43678201,0.00201017,0.00345242,0.01906457,-0.0
 3393250,-0.03105077,-0.08860210,0.06253312,0.03900311,0.05469349,-0.28
 706746,0.01278648,-0.09728630,-0.02288050,0.08164981,-0.01475726,-0.01
 808248,-0.03035765,-0.00247037,0.45501433,0.04977526,-0.09575135,0.026
 60593,0.03209891,-0.01496969,0.01445419,0.00544204,0.00318076,0.002243
 86,0.03114394,0.67017791,-0.14575609,0.04908653,-0.11255351,-0.0042613
 1,-0.01182172,-0.00216133,0.00041897,0.00676497,-0.00185040,0.30258167
 ,-0.07469092,0.29038314,0.00216453,-0.00230072,0.00432376,-0.00116509,
 0.00258719,-0.00014958,0.00004447,-0.00131851,-0.00021379,-0.01827652,
 0.00412606,0.00183470,0.50364509,-0.00073487,0.00059147,-0.00096131,0.
 00015677,-0.00073043,0.00006964,0.00009599,0.00045058,-0.00000237,0.00
 384099,-0.00098444,-0.00071312,0.02205985,0.60850285,0.01259860,-0.008
 45495,-0.00153741,-0.00153986,0.00977086,-0.00256227,-0.00194221,-0.00
 357821,-0.00011702,-0.00901182,0.00243056,0.01720983,-0.02923878,0.006
 19838,0.58187110,-0.00490937,0.00363322,-0.00001304,0.00077182,-0.0042
 4328,0.00108631,0.00074408,0.00161499,0.00006873,0.00769636,-0.0017967
 2,-0.00747410,-0.14794994,0.01675133,0.12733782,0.17007368,0.00105492,
 -0.00050261,0.00001964,-0.00024690,0.00088871,-0.00011113,-0.00015778,
 -0.00033180,0.00000198,-0.00146642,0.00059383,0.00146597,0.01669326,-0
 .05306520,-0.02191684,-0.02169966,0.04980672,-0.00202027,0.00130475,-0
 .00006777,0.00024980,-0.00154120,0.00035564,0.00035068,0.00054604,0.00
 002711,0.00183183,-0.00047588,-0.00165465,0.13117416,-0.02268995,-0.21
 484850,-0.13838671,0.02388419,0.22374469,-0.00029442,0.00036066,-0.000
 20688,0.00005837,-0.00028892,0.00000842,0.00008256,0.00011523,0.000048
 89,0.00163569,-0.00099665,-0.00127864,-0.07070074,-0.05397567,-0.04100
 946,0.00744937,0.01590524,0.01053411,0.08478107,-0.00054117,0.00044944
 ,-0.00009725,0.00009759,-0.00048224,0.00012547,0.00007908,0.00015996,0
 .00001971,0.00087224,0.00002808,0.00006843,-0.06259542,-0.21313258,-0.
 12147473,-0.00044714,-0.00154521,-0.00027961,0.06510021,0.22178457,-0.
 00089577,0.00075419,-0.00045727,0.00015904,-0.00089359,0.00020574,0.00
 015597,0.00035202,0.00001427,0.00234806,-0.00011812,-0.00062360,-0.044
 81911,-0.11818691,-0.13837034,-0.00751666,-0.01929474,-0.01280225,0.05
 427464,0.13069266,0.14562890,-0.00010023,-0.00013821,-0.00009784,0.000
 13971,-0.00001713,0.00006791,-0.00007801,0.00001895,0.00004016,0.00147
 096,0.00035585,-0.00123322,-0.05031919,-0.01372607,0.00812887,0.000685
 11,-0.01732592,0.00932842,-0.00013818,-0.00684050,0.00619955,0.0589020
 4,0.00069828,-0.00037411,0.00021489,-0.00021929,0.00059017,-0.00009792
 ,-0.00008459,-0.00022697,-0.00003096,-0.00155792,0.00034857,0.00044726
 ,-0.00498142,-0.24252115,0.12424193,-0.00047007,0.00451244,-0.00309755
 ,-0.00045007,-0.01766175,0.01365876,0.00245480,0.25774794,-0.00085982,
 0.00069202,-0.00046540,0.00026970,-0.00082854,0.00006222,0.00008249,0.
 00037020,0.00004848,0.00208235,-0.00097998,-0.00054190,0.00360177,0.12
 258470,-0.12923459,0.00041243,0.02120625,-0.01208765,0.00047889,-0.016
 09461,0.01218724,0.00037374,-0.13745099,0.13554476,-0.05368029,0.03226
 490,0.00444930,0.00644538,-0.03499496,0.00873776,0.00696510,0.01276780
 ,0.00072851,0.04080061,-0.01803838,-0.04445296,-0.20535814,0.02042538,
 -0.02851526,-0.03457686,0.00725360,-0.01321351,-0.01801226,0.00306476,
 -0.00764078,-0.00518114,0.00286251,-0.00399193,0.41840917,0.01175872,-
 0.00347536,-0.00132147,-0.00022290,0.00708192,-0.00366623,-0.00181078,
 -0.00163020,-0.00008070,-0.01751559,-0.03659635,0.01056007,0.02123798,
 -0.10771590,0.00556483,0.00658635,-0.00018236,0.00231189,-0.02856294,0
 .00884240,-0.00794285,0.03516807,-0.00437527,0.01050395,0.05976450,0.7
 4154856,0.02781911,-0.01927265,0.02218771,-0.00591349,0.02249948,-0.00
 329660,-0.00374052,-0.00918951,-0.00101585,-0.06848116,0.01521424,-0.0
 0533735,-0.06735772,0.01317492,-0.09991253,0.02343488,-0.00489821,0.01
 505345,-0.02152642,0.00597825,-0.00588524,-0.02094032,0.00253659,-0.00
 555148,0.20210803,-0.03261688,0.43215864,-0.00090971,0.00082075,-0.002
 68957,-0.00107217,-0.00081024,-0.00016419,0.00109361,0.00044064,-0.000
 29892,0.00343026,-0.00898778,0.00405083,-0.00274079,0.03337567,-0.0201
 4678,0.00073619,0.00027454,0.00054890,0.00112473,-0.00067109,-0.000062
 11,-0.00629302,0.00053099,-0.00183487,-0.05071192,-0.00160213,-0.01582
 741,0.05612784,0.00077964,-0.00109869,0.00133359,0.00023186,0.00191618
 ,0.00001502,-0.00101275,-0.00070113,0.00016964,-0.00411628,0.00428369,
 0.00000414,-0.00033481,-0.00148668,0.00186851,-0.00031283,-0.00004291,
 -0.00029446,-0.00016916,0.00064979,-0.00020277,0.00045616,0.00183047,-
 0.00056780,0.01478499,-0.33329240,0.16075483,-0.01323228,0.35000909,-0
 .00017938,-0.00040829,0.00201904,0.00098333,0.00007462,0.00049335,-0.0
 0093715,0.00015358,0.00019691,-0.00024412,0.00873288,-0.00609502,0.002
 95387,0.00686037,-0.00588959,0.00013553,-0.00064767,0.00088812,0.00002
 768,0.00028156,-0.00012630,-0.00220036,0.00017162,-0.00017137,-0.02728
 557,0.18812758,-0.14887816,0.02442690,-0.17955478,0.14904510,-0.001000
 28,0.00074716,-0.00250536,0.00016236,-0.00050390,0.00011130,0.00001628
 ,0.00010765,0.00009575,0.00864463,0.00672420,0.00302547,-0.01396058,-0
 .02753464,-0.02083097,0.00063427,-0.00061695,0.00057646,-0.00551873,0.
 00251602,-0.00149025,0.00132748,0.00038957,0.00002592,-0.09276656,-0.0
 8854368,-0.07781155,0.00019481,0.00175995,0.00188473,0.10509622,-0.000
 16197,0.00069159,-0.00029445,0.00015443,-0.00096578,0.00003925,0.00017
 811,0.00045197,0.00001949,0.00248507,-0.00045564,-0.00124349,0.0053322
 9,0.00959634,0.00658233,0.00001500,0.00004027,0.00004905,0.00252547,0.
 00095408,0.00124174,-0.00009043,0.00046190,0.00023764,-0.10482079,-0.2
 7394292,-0.14968929,-0.01130378,-0.02209584,-0.02238337,0.10603047,0.2
 8471737,0.00011675,0.00077407,0.00167211,0.00022324,-0.00036669,0.0000
 5556,-0.00017315,0.00041840,0.00003181,-0.00414804,-0.00734541,-0.0053
 5527,0.00024094,-0.00689797,-0.00609287,0.00037780,0.00050929,0.000970
 64,-0.00199529,0.00074225,-0.00008393,-0.00007004,-0.00027892,-0.00015
 509,-0.10024109,-0.17152060,-0.16633576,0.00951069,0.01821557,0.011605
 98,0.09454262,0.16471046,0.16600725,-0.00666199,0.02883729,-0.01283966
 ,-0.00285238,-0.00497448,-0.00512293,0.00157911,0.00056512,0.00065953,
 -0.05515650,0.04626024,-0.02783871,0.00123648,-0.00111669,0.00089489,-
 0.00004732,0.00043378,-0.00033301,-0.00004759,-0.00005968,-0.00008076,
 -0.00033986,0.00061247,-0.00026480,-0.00414923,-0.00875189,0.01065919,
 -0.00150368,0.00082372,0.00131551,0.00017268,-0.00006914,-0.00017899,0
 .06507115,-0.00113524,-0.00339097,0.00012300,-0.00114092,0.00132166,0.
 00125106,0.00090141,-0.00057667,0.00043692,0.04864179,-0.28636048,0.10
 944064,-0.00130698,0.00057955,-0.00018381,-0.00009819,-0.00013419,0.00
 004686,0.00003772,0.00003593,0.00005487,-0.00026048,-0.00032050,0.0003
 0394,0.00175115,0.00365172,-0.00342451,0.00087400,0.00010281,-0.000997
 94,-0.00024788,0.00011744,0.00026827,-0.05395405,0.29650425,0.00267348
 ,0.00516752,0.00231093,-0.00404911,0.00280638,0.00261260,0.00025290,-0
 .00180932,0.00031813,-0.04073065,0.10936387,-0.08758790,-0.00134509,0.
 00063913,-0.00120638,0.00064135,-0.00036426,0.00035538,0.00017192,0.00
 003840,0.00014847,0.00030724,-0.00031707,0.00032381,0.00978901,0.01114
 265,-0.01814094,0.00221112,-0.00141737,-0.00198677,0.00005111,0.000359
 82,-0.00039336,0.02512091,-0.11578579,0.09613349,-0.01453572,-0.018193
 00,-0.01169454,-0.00196667,-0.00444861,0.00214624,0.00257068,0.0016052
 0,0.00129871,-0.11784879,-0.11539956,-0.06401071,0.00195605,0.00051673
 ,0.00101326,-0.00023607,-0.00040957,-0.00033983,-0.00045596,-0.0004883
 5,-0.00035552,-0.00002405,0.00006522,-0.00008763,-0.00097422,0.0104438
 3,0.01118761,0.00034683,0.00005574,-0.00023336,-0.00188688,-0.00003730
 ,0.00151382,0.00426904,0.00563463,0.00299636,0.13187601,0.00116672,0.0
 0662915,0.00240679,-0.00011959,-0.00103840,0.00069936,0.00153368,-0.00
 191511,0.00054180,-0.11508994,-0.22585270,-0.08729102,0.00070548,-0.00
 018681,-0.00014179,0.00012185,0.00001913,0.00008530,0.00031351,-0.0001
 0096,-0.00015873,-0.00001676,0.00002358,-0.00002899,0.00040196,-0.0002
 1034,-0.00107216,0.00013807,0.00009800,-0.00015217,-0.00007737,0.00045
 145,0.00045452,-0.01158750,-0.01273191,-0.01025035,0.12181432,0.233463
 77,-0.00094278,-0.01020773,0.00319063,-0.00051445,0.00231416,-0.003270
 84,0.00071769,-0.00090948,0.00027226,-0.07350527,-0.08179278,-0.081505
 85,-0.00139997,-0.00002325,-0.00103535,0.00064161,0.00010501,0.0003260
 8,0.00041893,0.00013440,0.00035618,0.00011956,-0.00008086,0.00012655,0
 .00429802,-0.01404773,-0.01737322,-0.00015223,-0.00029354,-0.00052439,
 0.00254413,0.00045914,-0.00198083,0.00669255,0.00942678,0.00863588,0.0
 6106188,0.09488515,0.08946137,-0.05792204,-0.04405017,-0.01773640,-0.0
 0892659,0.00059633,-0.00328067,0.00180936,-0.00380296,0.00008207,-0.01
 784972,-0.03034731,-0.01084141,0.00052777,0.00004176,-0.00006194,-0.00
 004246,0.00008894,0.00006234,0.00007961,0.00003460,-0.00004511,-0.0000
 1680,-0.00000244,-0.00004964,0.00013532,0.00030365,0.00132556,0.000032
 99,0.00014596,-0.00029305,-0.00077340,-0.00001889,0.00031852,0.0000300
 9,-0.00023146,0.00100488,-0.00324504,0.00109416,-0.00140031,0.08425227
 ,-0.04327376,-0.08775710,-0.01292437,-0.02466326,-0.01021108,-0.013293
 35,-0.00017105,-0.01135162,0.00278064,-0.00191459,-0.01183446,-0.00614
 618,0.00052141,-0.00000401,0.00042067,-0.00024891,0.00005619,-0.000044
 23,0.00005525,-0.00004427,-0.00008846,-0.00002578,0.00003143,-0.000069
 80,-0.00180311,0.00115203,0.00283872,0.00004344,0.00010849,-0.00024490
 ,-0.00083974,-0.00017168,0.00024521,0.00064470,0.00134268,0.00029945,-
 0.00145634,0.00111553,0.00050485,0.07092512,0.12492304,-0.02145340,-0.
 01665862,-0.01443416,-0.00015525,0.00387148,-0.00508925,-0.00145566,-0
 .00077012,0.00326370,-0.00570943,-0.01361694,-0.00377546,0.00012503,-0
 .00003548,0.00019904,-0.00010460,-0.00006350,-0.00003491,0.00006855,-0
 .00004945,-0.00006845,-0.00000383,0.00000755,0.00000770,-0.00011831,0.
 00149214,0.00050083,0.00019302,-0.00001129,-0.00025566,-0.00009293,-0.
 00002081,0.00010139,0.00126185,-0.00112388,-0.00141969,-0.00428440,0.0
 0047251,0.00243667,0.03035081,0.02418562,0.01808064,-0.02793977,0.0219
 8493,-0.02140146,-0.26704649,0.03668379,-0.08650934,-0.07654457,-0.035
 70596,-0.02845506,0.01834111,-0.00183682,-0.00431526,0.00089674,-0.000
 18395,0.00238830,-0.00105924,0.00022086,-0.00037193,-0.00004727,-0.000
 12612,-0.00023590,-0.00003767,0.00015652,-0.00023889,-0.00764716,0.001
 87336,0.00516109,0.00014057,0.00014067,-0.00037039,-0.00030832,-0.0002
 1012,-0.00005420,-0.00114800,0.00046697,0.00091032,-0.00005962,-0.0003
 0229,0.00144685,0.00046815,0.00253622,0.00074835,0.73106169,0.04389876
 ,-0.00912328,0.01970114,0.04229460,-0.14886269,0.03215632,-0.05772651,
 0.00977129,-0.01996448,-0.00875648,-0.00542193,0.00422706,-0.00044381,
 0.00010790,-0.00130701,0.00059197,-0.00011276,0.00018819,0.00003131,0.
 00006251,0.00013412,-0.00001101,-0.00006514,0.00012085,0.00423148,-0.0
 0085944,-0.00280893,0.00009382,-0.00027192,0.00000731,0.00005182,0.000
 14580,0.00009521,0.00220114,-0.00028580,0.00005616,0.00038374,0.000211
 84,-0.00039857,0.00397583,-0.00426755,0.00163037,0.05926373,0.85993574
 ,-0.02466400,0.01496488,-0.00052489,-0.05965730,0.02370147,-0.07895368
 ,-0.02746170,-0.01376811,0.01146334,0.01069980,-0.00107494,0.00034549,
 0.00042047,-0.00005087,0.00185918,-0.00078993,0.00014213,-0.00028102,-
 0.00002459,-0.00010092,-0.00015840,-0.00002367,0.00010139,-0.00013210,
 -0.00585702,0.00170764,0.00283014,0.00021695,0.00002639,-0.00033590,-0
 .00015890,-0.00009774,-0.00005959,-0.00015075,0.00026396,0.00023988,-0
 .00027607,-0.00035694,0.00095102,0.00058012,0.00124379,0.00057286,0.13
 429658,-0.09337392,0.07000347,-0.00032714,-0.00002937,-0.00078028,-0.0
 1131448,-0.02465045,0.00877756,-0.00522532,0.00083416,-0.00427286,-0.0
 0064072,0.00001269,0.00044063,-0.00004163,0.00000997,-0.00013676,0.000
 06315,-0.00001131,0.00001912,0.00000394,0.00000899,0.00001357,-0.00000
 126,-0.00000763,0.00000996,0.00047513,-0.00011754,-0.00025804,-0.00000
 090,-0.00001928,0.00000551,-0.00002420,0.00000612,0.00001931,0.0001007
 8,-0.00000988,-0.00002008,0.00015842,-0.00003616,0.00000323,0.00081241
 ,0.00067783,0.00028855,-0.26525489,-0.20050111,-0.00216677,0.26847235,
 0.00341395,-0.00153146,0.00170480,-0.00358670,0.01016983,-0.00668622,0
 .00450794,0.00320470,0.00308533,-0.00165316,-0.00023065,-0.00008450,-0
 .00002641,0.00000575,-0.00018954,0.00007583,-0.00001407,0.00003327,0.0
 0000250,0.00000990,0.00001266,0.00000257,-0.00001217,0.00001470,0.0006
 5075,-0.00014852,-0.00034116,0.00000045,-0.00000889,0.00000782,0.00006
 183,0.00001357,-0.00002380,0.00010386,-0.00000012,0.00002419,-0.000103
 73,0.00000340,-0.00017687,0.00085269,-0.00303447,0.00049760,-0.1947126
 1,-0.27095740,0.02479034,0.21264262,0.27358374,0.00146284,-0.00087971,
 0.00022532,-0.00961070,-0.01269529,-0.00730190,-0.00495099,0.00171205,
 0.00504963,-0.00102535,0.00015223,-0.00014258,-0.00004305,0.00001999,-
 0.00022027,0.00009737,-0.00001525,0.00003075,0.00000506,0.00000482,0.0
 0001988,0.00000186,-0.00000958,0.00001577,0.00075999,-0.00022757,-0.00
 045738,0.00003035,-0.00005489,0.00000984,0.00001062,0.00001794,0.00001
 453,-0.00008283,0.00000584,0.00010973,0.00010136,-0.00007567,-0.000193
 89,-0.00016043,0.00063303,-0.00009298,0.01269618,0.03476392,-0.0034499
 2,-0.00262360,-0.02332594,0.01166045,-0.00506125,-0.00189755,-0.002918
 16,-0.00522658,0.03801048,-0.00047134,0.00393730,-0.00336975,0.0020778
 7,0.00076872,0.00146403,-0.00088985,0.00004150,-0.00000256,0.00007209,
 -0.00003279,0.00000937,-0.00001054,-0.00000017,-0.00000402,-0.00000886
 ,0.00000413,0.00000307,-0.00000968,-0.00017292,-0.00000901,0.00016115,
 0.00000434,0.00001871,0.00001031,-0.00000979,-0.00001456,-0.00000289,-
 0.00055278,0.00007741,0.00001432,0.00005599,-0.00006014,-0.00002944,0.
 00062807,-0.00100743,0.00034165,-0.10381527,0.11042071,-0.02498322,0.0
 1274436,-0.02223236,0.00333132,0.09668712,-0.00135310,0.00127220,-0.00
 076810,0.00304855,-0.00298391,-0.00002264,-0.00206716,0.00051093,-0.00
 062561,0.00100773,-0.00015515,-0.00007412,0.00004454,-0.00000725,0.000
 16880,-0.00007375,0.00001380,-0.00002666,-0.00000368,-0.00000965,-0.00
 001483,-0.00000411,0.00001056,-0.00001353,-0.00056651,0.00015241,0.000
 31626,0.00001492,-0.00000006,-0.00002824,-0.00002453,-0.00000991,0.000
 00015,0.00003113,0.00014459,0.00004658,0.00001703,0.00002037,0.0001013
 3,0.00039419,-0.00005315,0.00019284,0.10975081,-0.43000718,0.04188145,
 0.01119034,-0.01105316,-0.00002594,-0.12140639,0.44215455,-0.00198154,
 -0.00137400,0.00341155,-0.00965294,0.01701018,-0.00584466,0.00470720,-
 0.00041128,-0.00285833,-0.00217393,0.00089721,0.00124634,-0.00010763,0
 .00001411,-0.00011202,0.00005121,-0.00002285,0.00002490,0.00000418,0.0
 0001062,0.00001510,0.00000196,-0.00001614,0.00002304,0.00044581,0.0000
 1328,-0.00054628,-0.00001268,0.00000922,0.00000483,0.00002186,0.000012
 28,-0.00000257,0.00028802,-0.00010619,-0.00045327,-0.00003718,-0.00001
 760,0.00012773,0.00014467,-0.00034067,0.00000774,-0.01569524,0.0247722
 6,-0.00436988,0.00068096,0.00065732,-0.00527697,0.02331527,-0.04110774
 ,0.01460274\\0.00000575,0.00000294,0.00000214,0.00000575,0.00000364,-0
 .00000347,0.00000112,0.00000020,-0.00000806,-0.00000359,0.00000469,-0.
 00000175,-0.00000266,-0.00000434,-0.00000063,-0.00000310,-0.00000950,-
 0.00000097,0.00000093,-0.00000210,-0.00000494,-0.00000193,-0.00000181,
 0.00000368,0.,-0.00000501,0.00000008,-0.00000276,-0.00000721,-0.000001
 74,-0.00000452,-0.00000631,0.00000563,0.00000011,0.00000622,0.00000601
 ,0.00000291,0.00000500,-0.00000398,-0.00000261,0.00000382,0.00001197,0
 .00000317,0.00000320,0.00000147,0.00000012,0.00000460,0.00000193,0.000
 00132,0.00000198,-0.00000737\\\@


 THE DIFFERENCE BETWEEN A NOOSE AND A HALO IS ONLY 12 INCHES.
 Job cpu time:       0 days  1 hours 59 minutes 58.7 seconds.
 Elapsed time:       0 days  0 hours  7 minutes 32.7 seconds.
 File lengths (MBytes):  RWF=    245 Int=      0 D2E=      0 Chk=     18 Scr=      1
 Normal termination of Gaussian 16 at Tue Feb  9 16:40:54 2021.
