 Entering Gaussian System, Link 0=g16
 Initial command:
 /apps/gaussian/16/A.03/g16/l1.exe "/beegfs/scratch/user/q/tla25/Gau-50885.inp" -scrdir="/beegfs/scratch/user/q/tla25/"
 Entering Link 1 = /apps/gaussian/16/A.03/g16/l1.exe PID=     50886.
  
 Copyright (c) 1988,1990,1992,1993,1995,1998,2003,2009,2016,
            Gaussian, Inc.  All Rights Reserved.
  
 This is part of the Gaussian(R) 16 program.  It is based on
 the Gaussian(R) 09 system (copyright 2009, Gaussian, Inc.),
 the Gaussian(R) 03 system (copyright 2003, Gaussian, Inc.),
 the Gaussian(R) 98 system (copyright 1998, Gaussian, Inc.),
 the Gaussian(R) 94 system (copyright 1995, Gaussian, Inc.),
 the Gaussian 92(TM) system (copyright 1992, Gaussian, Inc.),
 the Gaussian 90(TM) system (copyright 1990, Gaussian, Inc.),
 the Gaussian 88(TM) system (copyright 1988, Gaussian, Inc.),
 the Gaussian 86(TM) system (copyright 1986, Carnegie Mellon
 University), and the Gaussian 82(TM) system (copyright 1983,
 Carnegie Mellon University). Gaussian is a federally registered
 trademark of Gaussian, Inc.
  
 This software contains proprietary and confidential information,
 including trade secrets, belonging to Gaussian, Inc.
  
 This software is provided under written license and may be
 used, copied, transmitted, or stored only in accord with that
 written license.
  
 The following legend is applicable only to US Government
 contracts under FAR:
  
                    RESTRICTED RIGHTS LEGEND
  
 Use, reproduction and disclosure by the US Government is
 subject to restrictions as set forth in subparagraphs (a)
 and (c) of the Commercial Computer Software - Restricted
 Rights clause in FAR 52.227-19.
  
 Gaussian, Inc.
 340 Quinnipiac St., Bldg. 40, Wallingford CT 06492
  
  
 ---------------------------------------------------------------
 Warning -- This program may not be used in any manner that
 competes with the business of Gaussian, Inc. or will provide
 assistance to any competitor of Gaussian, Inc.  The licensee
 of this program is prohibited from giving any competitor of
 Gaussian, Inc. access to this program.  By using this program,
 the user acknowledges that Gaussian, Inc. is engaged in the
 business of creating and licensing software in the field of
 computational chemistry and represents and warrants to the
 licensee that it is not a competitor of Gaussian, Inc. and that
 it will not use this program in any manner prohibited above.
 ---------------------------------------------------------------
  

 Cite this work as:
 Gaussian 16, Revision A.03,
 M. J. Frisch, G. W. Trucks, H. B. Schlegel, G. E. Scuseria, 
 M. A. Robb, J. R. Cheeseman, G. Scalmani, V. Barone, 
 G. A. Petersson, H. Nakatsuji, X. Li, M. Caricato, A. V. Marenich, 
 J. Bloino, B. G. Janesko, R. Gomperts, B. Mennucci, H. P. Hratchian, 
 J. V. Ortiz, A. F. Izmaylov, J. L. Sonnenberg, D. Williams-Young, 
 F. Ding, F. Lipparini, F. Egidi, J. Goings, B. Peng, A. Petrone, 
 T. Henderson, D. Ranasinghe, V. G. Zakrzewski, J. Gao, N. Rega, 
 G. Zheng, W. Liang, M. Hada, M. Ehara, K. Toyota, R. Fukuda, 
 J. Hasegawa, M. Ishida, T. Nakajima, Y. Honda, O. Kitao, H. Nakai, 
 T. Vreven, K. Throssell, J. A. Montgomery, Jr., J. E. Peralta, 
 F. Ogliaro, M. J. Bearpark, J. J. Heyd, E. N. Brothers, K. N. Kudin, 
 V. N. Staroverov, T. A. Keith, R. Kobayashi, J. Normand, 
 K. Raghavachari, A. P. Rendell, J. C. Burant, S. S. Iyengar, 
 J. Tomasi, M. Cossi, J. M. Millam, M. Klene, C. Adamo, R. Cammi, 
 J. W. Ochterski, R. L. Martin, K. Morokuma, O. Farkas, 
 J. B. Foresman, and D. J. Fox, Gaussian, Inc., Wallingford CT, 2016.
 
 ******************************************
 Gaussian 16:  ES64L-G16RevA.03 25-Dec-2016
                12-Feb-2021 
 ******************************************
 %nprocshared=16
 Will use up to   16 processors via shared memory.
 %mem=48GB
 ----------------------------------------------------------------------
 # wB97XD def2tzvp, opt=(ts, noeigen, calcfc, maxcycles=70, maxstep=8),
  freq=noraman, scrf=(iefpcm, solvent=water)
 ----------------------------------------------------------------------
 1/5=1,6=70,8=8,10=4,11=1,18=20,26=3,38=1/1,3;
 2/9=110,12=2,17=6,18=5,40=1/2;
 3/5=44,7=101,11=2,25=1,30=1,70=2201,71=2,72=1,74=-58,140=1/1,2,3;
 4//1;
 5/5=2,38=5,53=1/2;
 8/6=4,10=90,11=11/1;
 11/6=1,8=1,9=11,15=111,16=1/1,2,10;
 10/6=1,13=1/2;
 6/7=2,8=2,9=2,10=2,28=1/1;
 7/10=1,18=20,25=1/1,2,3,16;
 1/5=1,6=70,8=8,10=4,11=1,18=20,26=3/3(2);
 2/9=110/2;
 99//99;
 2/9=110/2;
 3/5=44,7=101,11=2,25=1,30=1,70=2205,71=1,72=1,74=-58/1,2,3;
 4/5=5,16=3,69=1/1;
 5/5=2,38=5,53=1/2;
 7//1,2,3,16;
 1/5=1,6=70,8=8,11=1,18=20,26=3/3(-5);
 2/9=110/2;
 6/7=2,8=2,9=2,10=2,19=2,28=1/1;
 99/9=1/99;
 ------------------------
 0_iteration/TS-386-0.out
 ------------------------
 Symbolic Z-matrix:
 Charge =  0 Multiplicity = 1
 C                     0.13834   0.31935  -0.20924 
 C                     0.05126   1.39157   0.83582 
 O                     0.07993   1.12739   2.01932 
 C                    -0.90897  -0.41683  -0.66938 
 C                    -0.60709  -2.48074   1.12809 
 H                    -1.01459  -3.16865   1.86861 
 H                    -0.11112  -3.04973   0.34332 
 H                     0.11986  -1.82589   1.60517 
 N                    -1.65032  -1.65043   0.53159 
 H                    -2.35239  -2.21195   0.06082 
 H                    -2.12535  -1.10295   1.24105 
 H                    -0.72581  -1.14732  -1.4462 
 Cl                   -2.44531   0.4654   -0.96495 
 Br                    1.91564  -0.34398  -0.46643 
 C                    -0.03859   2.8075    0.34506 
 H                    -0.90077   2.90684  -0.31695 
 H                    -0.1109    3.51028   1.17298 
 H                     0.84686   3.02554  -0.25738 
 
 Add virtual bond connecting atoms N9         and C4         Dist= 3.54D+00.

 GradGradGradGradGradGradGradGradGradGradGradGradGradGradGradGradGradGrad
 Berny optimization.
 Initialization pass.
                           ----------------------------
                           !    Initial Parameters    !
                           ! (Angstroms and Degrees)  !
 --------------------------                            --------------------------
 ! Name  Definition              Value          Derivative Info.                !
 --------------------------------------------------------------------------------
 ! R1    R(1,2)                  1.4998         calculate D2E/DX2 analytically  !
 ! R2    R(1,4)                  1.3603         calculate D2E/DX2 analytically  !
 ! R3    R(1,14)                 1.9144         calculate D2E/DX2 analytically  !
 ! R4    R(2,3)                  1.213          calculate D2E/DX2 analytically  !
 ! R5    R(2,15)                 1.5013         calculate D2E/DX2 analytically  !
 ! R6    R(4,9)                  1.8745         calculate D2E/DX2 analytically  !
 ! R7    R(4,12)                 1.0819         calculate D2E/DX2 analytically  !
 ! R8    R(4,13)                 1.7961         calculate D2E/DX2 analytically  !
 ! R9    R(5,6)                  1.0898         calculate D2E/DX2 analytically  !
 ! R10   R(5,7)                  1.0889         calculate D2E/DX2 analytically  !
 ! R11   R(5,8)                  1.0885         calculate D2E/DX2 analytically  !
 ! R12   R(5,9)                  1.4607         calculate D2E/DX2 analytically  !
 ! R13   R(9,10)                 1.0148         calculate D2E/DX2 analytically  !
 ! R14   R(9,11)                 1.0143         calculate D2E/DX2 analytically  !
 ! R15   R(15,16)                1.0915         calculate D2E/DX2 analytically  !
 ! R16   R(15,17)                1.0884         calculate D2E/DX2 analytically  !
 ! R17   R(15,18)                1.0929         calculate D2E/DX2 analytically  !
 ! A1    A(2,1,4)              125.3017         calculate D2E/DX2 analytically  !
 ! A2    A(2,1,14)             113.2801         calculate D2E/DX2 analytically  !
 ! A3    A(4,1,14)             118.8025         calculate D2E/DX2 analytically  !
 ! A4    A(1,2,3)              121.5201         calculate D2E/DX2 analytically  !
 ! A5    A(1,2,15)             116.7416         calculate D2E/DX2 analytically  !
 ! A6    A(3,2,15)             121.7215         calculate D2E/DX2 analytically  !
 ! A7    A(1,4,9)              116.3539         calculate D2E/DX2 analytically  !
 ! A8    A(1,4,12)             118.5486         calculate D2E/DX2 analytically  !
 ! A9    A(1,4,13)             116.6398         calculate D2E/DX2 analytically  !
 ! A10   A(9,4,12)              94.74           calculate D2E/DX2 analytically  !
 ! A11   A(9,4,13)              95.186          calculate D2E/DX2 analytically  !
 ! A12   A(12,4,13)            110.9947         calculate D2E/DX2 analytically  !
 ! A13   A(6,5,7)              109.2814         calculate D2E/DX2 analytically  !
 ! A14   A(6,5,8)              109.3688         calculate D2E/DX2 analytically  !
 ! A15   A(6,5,9)              111.6694         calculate D2E/DX2 analytically  !
 ! A16   A(7,5,8)              109.0295         calculate D2E/DX2 analytically  !
 ! A17   A(7,5,9)              109.1499         calculate D2E/DX2 analytically  !
 ! A18   A(8,5,9)              108.2994         calculate D2E/DX2 analytically  !
 ! A19   A(4,9,5)              110.6874         calculate D2E/DX2 analytically  !
 ! A20   A(4,9,10)             109.9098         calculate D2E/DX2 analytically  !
 ! A21   A(4,9,11)             106.1501         calculate D2E/DX2 analytically  !
 ! A22   A(5,9,10)             111.6553         calculate D2E/DX2 analytically  !
 ! A23   A(5,9,11)             110.8356         calculate D2E/DX2 analytically  !
 ! A24   A(10,9,11)            107.4066         calculate D2E/DX2 analytically  !
 ! A25   A(2,15,16)            109.3519         calculate D2E/DX2 analytically  !
 ! A26   A(2,15,17)            111.3656         calculate D2E/DX2 analytically  !
 ! A27   A(2,15,18)            108.6548         calculate D2E/DX2 analytically  !
 ! A28   A(16,15,17)           110.4937         calculate D2E/DX2 analytically  !
 ! A29   A(16,15,18)           106.7059         calculate D2E/DX2 analytically  !
 ! A30   A(17,15,18)           110.1396         calculate D2E/DX2 analytically  !
 ! D1    D(4,1,2,3)             84.0806         calculate D2E/DX2 analytically  !
 ! D2    D(4,1,2,15)           -97.389          calculate D2E/DX2 analytically  !
 ! D3    D(14,1,2,3)           -77.24           calculate D2E/DX2 analytically  !
 ! D4    D(14,1,2,15)          101.2904         calculate D2E/DX2 analytically  !
 ! D5    D(2,1,4,9)            -69.5553         calculate D2E/DX2 analytically  !
 ! D6    D(2,1,4,12)           178.4507         calculate D2E/DX2 analytically  !
 ! D7    D(2,1,4,13)            41.6287         calculate D2E/DX2 analytically  !
 ! D8    D(14,1,4,9)            90.8277         calculate D2E/DX2 analytically  !
 ! D9    D(14,1,4,12)          -21.1663         calculate D2E/DX2 analytically  !
 ! D10   D(14,1,4,13)         -157.9884         calculate D2E/DX2 analytically  !
 ! D11   D(1,2,15,16)           56.8478         calculate D2E/DX2 analytically  !
 ! D12   D(1,2,15,17)          179.2492         calculate D2E/DX2 analytically  !
 ! D13   D(1,2,15,18)          -59.2648         calculate D2E/DX2 analytically  !
 ! D14   D(3,2,15,16)         -124.625          calculate D2E/DX2 analytically  !
 ! D15   D(3,2,15,17)           -2.2235         calculate D2E/DX2 analytically  !
 ! D16   D(3,2,15,18)          119.2624         calculate D2E/DX2 analytically  !
 ! D17   D(1,4,9,5)            -50.1474         calculate D2E/DX2 analytically  !
 ! D18   D(1,4,9,10)          -173.9477         calculate D2E/DX2 analytically  !
 ! D19   D(1,4,9,11)            70.1955         calculate D2E/DX2 analytically  !
 ! D20   D(12,4,9,5)            75.0393         calculate D2E/DX2 analytically  !
 ! D21   D(12,4,9,10)          -48.761          calculate D2E/DX2 analytically  !
 ! D22   D(12,4,9,11)         -164.6178         calculate D2E/DX2 analytically  !
 ! D23   D(13,4,9,5)          -173.3367         calculate D2E/DX2 analytically  !
 ! D24   D(13,4,9,10)           62.8631         calculate D2E/DX2 analytically  !
 ! D25   D(13,4,9,11)          -52.9937         calculate D2E/DX2 analytically  !
 ! D26   D(6,5,9,4)            176.9893         calculate D2E/DX2 analytically  !
 ! D27   D(6,5,9,10)           -60.2191         calculate D2E/DX2 analytically  !
 ! D28   D(6,5,9,11)            59.4833         calculate D2E/DX2 analytically  !
 ! D29   D(7,5,9,4)            -62.0729         calculate D2E/DX2 analytically  !
 ! D30   D(7,5,9,10)            60.7187         calculate D2E/DX2 analytically  !
 ! D31   D(7,5,9,11)          -179.5789         calculate D2E/DX2 analytically  !
 ! D32   D(8,5,9,4)             56.5068         calculate D2E/DX2 analytically  !
 ! D33   D(8,5,9,10)           179.2984         calculate D2E/DX2 analytically  !
 ! D34   D(8,5,9,11)           -60.9992         calculate D2E/DX2 analytically  !
 --------------------------------------------------------------------------------
 Trust Radius=8.00D-02 FncErr=1.00D-07 GrdErr=1.00D-06 EigMax=2.50D+02 EigMin=1.00D-04
 Number of steps in this run=     70 maximum allowed number of steps=    108.
 Search for a saddle point of order  1.
 GradGradGradGradGradGradGradGradGradGradGradGradGradGradGradGradGradGrad

                          Input orientation:                          
 ---------------------------------------------------------------------
 Center     Atomic      Atomic             Coordinates (Angstroms)
 Number     Number       Type             X           Y           Z
 ---------------------------------------------------------------------
      1          6           0        0.138340    0.319350   -0.209240
      2          6           0        0.051260    1.391570    0.835820
      3          8           0        0.079930    1.127390    2.019320
      4          6           0       -0.908970   -0.416830   -0.669380
      5          6           0       -0.607090   -2.480740    1.128090
      6          1           0       -1.014590   -3.168650    1.868610
      7          1           0       -0.111120   -3.049730    0.343320
      8          1           0        0.119860   -1.825890    1.605170
      9          7           0       -1.650320   -1.650430    0.531590
     10          1           0       -2.352390   -2.211950    0.060820
     11          1           0       -2.125350   -1.102950    1.241050
     12          1           0       -0.725810   -1.147320   -1.446200
     13         17           0       -2.445310    0.465400   -0.964950
     14         35           0        1.915640   -0.343980   -0.466430
     15          6           0       -0.038590    2.807500    0.345060
     16          1           0       -0.900770    2.906840   -0.316950
     17          1           0       -0.110900    3.510280    1.172980
     18          1           0        0.846860    3.025540   -0.257380
 ---------------------------------------------------------------------
                    Distance matrix (angstroms):
                    1          2          3          4          5
     1  C    0.000000
     2  C    1.499796   0.000000
     3  O    2.371249   1.212965   0.000000
     4  C    1.360349   2.541255   3.254481   0.000000
     5  C    3.191335   3.938735   3.779536   2.753499   0.000000
     6  H    4.220527   4.795654   4.435837   3.745005   1.089792
     7  H    3.423193   4.471473   4.504865   2.931602   1.088853
     8  H    2.809712   3.308875   2.982445   2.866622   1.088527
     9  N    2.761914   3.498813   3.594912   1.874486   1.460670
    10  H    3.561481   4.400399   4.571990   2.416425   2.063343
    11  H    3.041475   3.335337   3.231622   2.366450   2.053334
    12  H    2.104269   3.501059   4.222955   1.081948   2.901564
    13  Cl   2.695863   3.214565   3.964963   1.796116   4.054579
    14  Br   1.914406   2.860752   3.422530   2.832829   3.670477
    15  C    2.555278   1.501258   2.374861   3.490409   5.376040
    16  H    2.790422   2.128681   3.096187   3.342313   5.585732
    17  H    3.486357   2.151489   2.535916   4.410601   6.011700
    18  H    2.797817   2.120831   3.061783   3.886206   5.861111
                    6          7          8          9         10
     6  H    0.000000
     7  H    1.776769   0.000000
     8  H    1.777465   1.772964   0.000000
     9  N    2.120558   2.088689   2.077714   0.000000
    10  H    2.443990   2.409351   2.940422   1.014806   0.000000
    11  H    2.427908   2.941597   2.386670   1.014259   1.635350
    12  H    3.893216   2.683168   3.238283   2.240422   2.459738
    13  Cl   4.825178   4.417709   4.293673   2.710789   2.868631
    14  Br   4.692272   3.476282   3.116474   3.926694   4.688644
    15  C    6.244049   5.857679   4.804299   4.744007   5.534378
    16  H    6.457647   6.044852   5.209123   4.695802   5.334034
    17  H    6.775593   6.612266   5.358614   5.423479   6.245406
    18  H    6.808290   6.179601   5.247284   5.359391   6.145547
                   11         12         13         14         15
    11  H    0.000000
    12  H    3.030180   0.000000
    13  Cl   2.725533   2.406065   0.000000
    14  Br   4.452092   2.929601   4.463351   0.000000
    15  C    4.522055   4.395621   3.604700   3.795966   0.000000
    16  H    4.472737   4.212129   2.960766   4.303759   1.091549
    17  H    5.034335   5.378797   4.392210   4.652940   1.088384
    18  H    5.303183   4.615121   4.230054   3.541138   1.092931
                   16         17         18
    16  H    0.000000
    17  H    1.791068   0.000000
    18  H    1.752669   1.788353   0.000000
 Stoichiometry    C5H9BrClNO
 Framework group  C1[X(C5H9BrClNO)]
 Deg. of freedom    48
 Full point group                 C1      NOp   1
 Largest Abelian subgroup         C1      NOp   1
 Largest concise Abelian subgroup C1      NOp   1
                         Standard orientation:                         
 ---------------------------------------------------------------------
 Center     Atomic      Atomic             Coordinates (Angstroms)
 Number     Number       Type             X           Y           Z
 ---------------------------------------------------------------------
      1          6           0        0.138340    0.319352   -0.209240
      2          6           0        0.051253    1.391571    0.835820
      3          8           0        0.079924    1.127392    2.019320
      4          6           0       -0.908966   -0.416835   -0.669380
      5          6           0       -0.607072   -2.480743    1.128090
      6          1           0       -1.014568   -3.168655    1.868610
      7          1           0       -0.111099   -3.049730    0.343320
      8          1           0        0.119873   -1.825888    1.605170
      9          7           0       -1.650308   -1.650439    0.531590
     10          1           0       -2.352374   -2.211964    0.060820
     11          1           0       -2.125341   -1.102962    1.241050
     12          1           0       -0.725801   -1.147324   -1.446200
     13         17           0       -2.445311    0.465386   -0.964950
     14         35           0        1.915644   -0.343967   -0.466430
     15          6           0       -0.038606    2.807501    0.345060
     16          1           0       -0.900787    2.906835   -0.316950
     17          1           0       -0.110921    3.510280    1.172980
     18          1           0        0.846842    3.025547   -0.257380
 ---------------------------------------------------------------------
 Rotational constants (GHZ):           1.0306090           0.6973413           0.5652875
 Standard basis: def2TZVP (5D, 7F)
 There are   403 symmetry adapted cartesian basis functions of A   symmetry.
 There are   356 symmetry adapted basis functions of A   symmetry.
   356 basis functions,   612 primitive gaussians,   403 cartesian basis functions
    53 alpha electrons       53 beta electrons
       nuclear repulsion energy       828.2390743095 Hartrees.
 NAtoms=   18 NActive=   18 NUniq=   18 SFac= 1.00D+00 NAtFMM=   60 NAOKFM=F Big=F
 Integral buffers will be    131072 words long.
 Raffenetti 2 integral format.
 Two-electron integral symmetry is turned on.
 Nuclear repulsion after empirical dispersion term =      828.2269131794 Hartrees.
 Force inversion solution in PCM.
 ------------------------------------------------------------------------------
 Polarizable Continuum Model (PCM)
 =================================
 Model                : PCM.
 Atomic radii         : UFF (Universal Force Field).
 Polarization charges : Total charges.
 Charge compensation  : None.
 Solution method      : Matrix inversion.
 Cavity type          : Scaled VdW (van der Waals Surface) (Alpha=1.100).
 Cavity algorithm     : GePol (No added spheres)
                        Default sphere list used, NSphG=   18.
                        Lebedev-Laikov grids with approx.  5.0 points / Ang**2.
                        Smoothing algorithm: York/Karplus (Gamma=1.0000).
                        Polarization charges: spherical gaussians, with
                                              point-specific exponents (IZeta= 3).
                        Self-potential: point-specific (ISelfS= 7).
                        Self-field    : sphere-specific E.n sum rule (ISelfD= 2).
 1st derivatives      : Analytical E(r).r(x)/FMM algorithm (CHGder, D1EAlg=3).
                        Cavity 1st derivative terms included.
 2nd derivatives      : Analytical E(r).r(xy)/FMM algorithm (CHGder, D2EAlg=3).
                        Cavity 2nd derivative terms included.
 Solvent              : Water, Eps=  78.355300 Eps(inf)=   1.777849
 ------------------------------------------------------------------------------
 Spheres list:
 ISph  on   Nord     Re0    Alpha      Xe            Ye            Ze
    1   C      1    1.9255  1.100      0.138340      0.319352     -0.209240
    2   C      2    1.9255  1.100      0.051253      1.391571      0.835820
    3   O      3    1.7500  1.100      0.079924      1.127392      2.019320
    4   C      4    1.9255  1.100     -0.908966     -0.416835     -0.669380
    5   C      5    1.9255  1.100     -0.607072     -2.480743      1.128090
    6   H      6    1.4430  1.100     -1.014568     -3.168655      1.868610
    7   H      7    1.4430  1.100     -0.111099     -3.049730      0.343320
    8   H      8    1.4430  1.100      0.119873     -1.825888      1.605170
    9   N      9    1.8300  1.100     -1.650308     -1.650439      0.531590
   10   H     10    1.4430  1.100     -2.352374     -2.211964      0.060820
   11   H     11    1.4430  1.100     -2.125341     -1.102962      1.241050
   12   H     12    1.4430  1.100     -0.725801     -1.147324     -1.446200
   13  Cl     13    1.9735  1.100     -2.445311      0.465386     -0.964950
   14  Br     14    2.0945  1.100      1.915644     -0.343967     -0.466430
   15   C     15    1.9255  1.100     -0.038606      2.807501      0.345060
   16   H     16    1.4430  1.100     -0.900787      2.906835     -0.316950
   17   H     17    1.4430  1.100     -0.110921      3.510280      1.172980
   18   H     18    1.4430  1.100      0.846842      3.025547     -0.257380
 ------------------------------------------------------------------------------
 One-electron integrals computed using PRISM.
   1 Symmetry operations used in ECPInt.
 ECPInt:  NShTT=   10153 NPrTT=   34213 LenC2=    9757 LenP2D=   24593.
 LDataN:  DoStor=T MaxTD1= 6 Len=  172
 NBasis=   356 RedAO= T EigKep=  1.27D-04  NBF=   356
 NBsUse=   356 1.00D-06 EigRej= -1.00D+00 NBFU=   356
 ExpMin= 9.52D-02 ExpMax= 5.65D+05 ExpMxC= 5.46D+03 IAcc=3 IRadAn=         5 AccDes= 0.00D+00
 Harris functional with IExCor= 4639 and IRadAn=       5 diagonalized for initial guess.
 HarFok:  IExCor= 4639 AccDes= 0.00D+00 IRadAn=         5 IDoV= 1 UseB2=F ITyADJ=14
 ICtDFT=  3500011 ScaDFX=  1.000000  1.000000  1.000000  1.000000
 FoFCou: FMM=F IPFlag=           0 FMFlag=      100000 FMFlg1=           0
         NFxFlg=           0 DoJE=T BraDBF=F KetDBF=T FulRan=T
         wScrn=  0.000000 ICntrl=       500 IOpCl=  0 I1Cent=   200000004 NGrid=           0
         NMat0=    1 NMatS0=      1 NMatT0=    0 NMatD0=    1 NMtDS0=    0 NMtDT0=    0
 Petite list used in FoFCou.
 Requested convergence on RMS density matrix=1.00D-08 within 128 cycles.
 Requested convergence on MAX density matrix=1.00D-06.
 Requested convergence on             energy=1.00D-06.
 No special actions if energy rises.
 Inv3:  Mode=1 IEnd=     7785963.
 Iteration    1 A*A^-1 deviation from unit magnitude is 7.11D-15 for   1608.
 Iteration    1 A*A^-1 deviation from orthogonality  is 2.38D-15 for   1609   1479.
 Iteration    1 A^-1*A deviation from unit magnitude is 6.66D-15 for   1608.
 Iteration    1 A^-1*A deviation from orthogonality  is 2.11D-15 for   1611   1489.
 Error on total polarization charges =  0.01401
 SCF Done:  E(RwB97XD) =  -3360.30668076     A.U. after   16 cycles
            NFock= 16  Conv=0.34D-08     -V/T= 2.0017
 DoSCS=F DFT=T ScalE2(SS,OS)=  1.000000  1.000000
 Range of M.O.s used for correlation:     1   356
 NBasis=   356 NAE=    53 NBE=    53 NFC=     0 NFV=     0
 NROrb=    356 NOA=    53 NOB=    53 NVA=   303 NVB=   303

 **** Warning!!: The largest alpha MO coefficient is  0.20093416D+02

   1 Symmetry operations used in ECPInt.
 ECPInt:  NShTT=   10153 NPrTT=   34213 LenC2=    9757 LenP2D=   24593.
 LDataN:  DoStor=T MaxTD1= 7 Len=  274
 Symmetrizing basis deriv contribution to polar:
 IMax=3 JMax=2 DiffMx= 0.00D+00
 G2DrvN: will do    19 centers at a time, making    1 passes.
 Calling FoFCou, ICntrl=  3107 FMM=F I1Cent=   0 AccDes= 0.00D+00.
 NEqPCM:  Using equilibrium solvation (IEInf=0, Eps=  78.3553, EpsInf=   1.7778)
 G2PCM: DoFxE=T DoFxN=T DoGrad=T DoDP/DQ/DG/TGxP=FFFF NFrqRd=   0 IEInf=0 SqF1=F DoCFld=F IF1Alg=4.
 End of G2Drv F.D. properties file   721 does not exist.
 End of G2Drv F.D. properties file   722 does not exist.
 End of G2Drv F.D. properties file   788 does not exist.
          IDoAtm=111111111111111111
 NEqPCM:  Using equilibrium solvation (IEInf=0, Eps=  78.3553, EpsInf=   1.7778)
          Differentiating once with respect to nuclear coordinates.
 Keep R1 ints in memory in canonical form, NReq=4071137043.
          There are    57 degrees of freedom in the 1st order CPHF.  IDoFFX=6 NUNeed=     0.
     51 vectors produced by pass  0 Test12= 2.82D-14 1.75D-09 XBig12= 1.14D-01 6.92D-02.
 AX will form    51 AO Fock derivatives at one time.
     51 vectors produced by pass  1 Test12= 2.82D-14 1.75D-09 XBig12= 1.82D-02 2.24D-02.
     51 vectors produced by pass  2 Test12= 2.82D-14 1.75D-09 XBig12= 6.40D-04 4.10D-03.
     51 vectors produced by pass  3 Test12= 2.82D-14 1.75D-09 XBig12= 1.16D-05 6.63D-04.
     51 vectors produced by pass  4 Test12= 2.82D-14 1.75D-09 XBig12= 1.37D-07 4.80D-05.
     51 vectors produced by pass  5 Test12= 2.82D-14 1.75D-09 XBig12= 1.17D-09 4.29D-06.
     51 vectors produced by pass  6 Test12= 2.82D-14 1.75D-09 XBig12= 9.27D-12 3.41D-07.
     19 vectors produced by pass  7 Test12= 2.82D-14 1.75D-09 XBig12= 6.70D-14 3.98D-08.
      1 vectors produced by pass  8 Test12= 2.82D-14 1.75D-09 XBig12= 5.11D-16 4.48D-09.
 InvSVY:  IOpt=1 It=  1 EMax= 3.33D-16
 Solved reduced A of dimension   377 with    57 vectors.
 End of Minotr F.D. properties file   721 does not exist.
 End of Minotr F.D. properties file   722 does not exist.
 End of Minotr F.D. properties file   788 does not exist.

 **********************************************************************

            Population analysis using the SCF density.

 **********************************************************************

 Orbital symmetries:
       Occupied  (A) (A) (A) (A) (A) (A) (A) (A) (A) (A) (A) (A)
                 (A) (A) (A) (A) (A) (A) (A) (A) (A) (A) (A) (A)
                 (A) (A) (A) (A) (A) (A) (A) (A) (A) (A) (A) (A)
                 (A) (A) (A) (A) (A) (A) (A) (A) (A) (A) (A) (A)
                 (A) (A) (A) (A) (A)
       Virtual   (A) (A) (A) (A) (A) (A) (A) (A) (A) (A) (A) (A)
                 (A) (A) (A) (A) (A) (A) (A) (A) (A) (A) (A) (A)
                 (A) (A) (A) (A) (A) (A) (A) (A) (A) (A) (A) (A)
                 (A) (A) (A) (A) (A) (A) (A) (A) (A) (A) (A) (A)
                 (A) (A) (A) (A) (A) (A) (A) (A) (A) (A) (A) (A)
                 (A) (A) (A) (A) (A) (A) (A) (A) (A) (A) (A) (A)
                 (A) (A) (A) (A) (A) (A) (A) (A) (A) (A) (A) (A)
                 (A) (A) (A) (A) (A) (A) (A) (A) (A) (A) (A) (A)
                 (A) (A) (A) (A) (A) (A) (A) (A) (A) (A) (A) (A)
                 (A) (A) (A) (A) (A) (A) (A) (A) (A) (A) (A) (A)
                 (A) (A) (A) (A) (A) (A) (A) (A) (A) (A) (A) (A)
                 (A) (A) (A) (A) (A) (A) (A) (A) (A) (A) (A) (A)
                 (A) (A) (A) (A) (A) (A) (A) (A) (A) (A) (A) (A)
                 (A) (A) (A) (A) (A) (A) (A) (A) (A) (A) (A) (A)
                 (A) (A) (A) (A) (A) (A) (A) (A) (A) (A) (A) (A)
                 (A) (A) (A) (A) (A) (A) (A) (A) (A) (A) (A) (A)
                 (A) (A) (A) (A) (A) (A) (A) (A) (A) (A) (A) (A)
                 (A) (A) (A) (A) (A) (A) (A) (A) (A) (A) (A) (A)
                 (A) (A) (A) (A) (A) (A) (A) (A) (A) (A) (A) (A)
                 (A) (A) (A) (A) (A) (A) (A) (A) (A) (A) (A) (A)
                 (A) (A) (A) (A) (A) (A) (A) (A) (A) (A) (A) (A)
                 (A) (A) (A) (A) (A) (A) (A) (A) (A) (A) (A) (A)
                 (A) (A) (A) (A) (A) (A) (A) (A) (A) (A) (A) (A)
                 (A) (A) (A) (A) (A) (A) (A) (A) (A) (A) (A) (A)
                 (A) (A) (A) (A) (A) (A) (A) (A) (A) (A) (A) (A)
                 (A) (A) (A)
 The electronic state is 1-A.
 Alpha  occ. eigenvalues -- -483.12607-101.69801 -62.67430 -56.46541 -56.46204
 Alpha  occ. eigenvalues --  -56.46182 -19.24804 -14.48125 -10.38763 -10.38520
 Alpha  occ. eigenvalues --  -10.31518 -10.29936 -10.28145  -9.58384  -8.81538
 Alpha  occ. eigenvalues --   -7.33009  -7.32165  -7.32153  -6.63669  -6.62588
 Alpha  occ. eigenvalues --   -6.62520  -2.74060  -2.73758  -2.73703  -2.72828
 Alpha  occ. eigenvalues --   -2.72828  -1.15570  -1.04330  -0.96783  -0.91030
 Alpha  occ. eigenvalues --   -0.84843  -0.81111  -0.78761  -0.71789  -0.63677
 Alpha  occ. eigenvalues --   -0.60505  -0.57457  -0.56579  -0.55868  -0.54213
 Alpha  occ. eigenvalues --   -0.52792  -0.52105  -0.48874  -0.47861  -0.46893
 Alpha  occ. eigenvalues --   -0.45784  -0.44531  -0.40340  -0.39672  -0.39051
 Alpha  occ. eigenvalues --   -0.37503  -0.34352  -0.26441
 Alpha virt. eigenvalues --    0.02506   0.06908   0.09925   0.10767   0.13327
 Alpha virt. eigenvalues --    0.13641   0.14620   0.15756   0.17343   0.19281
 Alpha virt. eigenvalues --    0.19668   0.20017   0.20498   0.22477   0.22505
 Alpha virt. eigenvalues --    0.23566   0.24599   0.26898   0.27295   0.29468
 Alpha virt. eigenvalues --    0.29630   0.30886   0.31287   0.31897   0.32619
 Alpha virt. eigenvalues --    0.34102   0.35157   0.35881   0.37129   0.37988
 Alpha virt. eigenvalues --    0.39033   0.40619   0.41046   0.42810   0.43360
 Alpha virt. eigenvalues --    0.44527   0.45681   0.45945   0.47380   0.47630
 Alpha virt. eigenvalues --    0.48522   0.49581   0.50298   0.51903   0.52265
 Alpha virt. eigenvalues --    0.52732   0.54211   0.54405   0.55602   0.56240
 Alpha virt. eigenvalues --    0.56616   0.57189   0.57911   0.58622   0.60497
 Alpha virt. eigenvalues --    0.61688   0.61975   0.62910   0.64920   0.66603
 Alpha virt. eigenvalues --    0.67317   0.68914   0.71035   0.73337   0.74574
 Alpha virt. eigenvalues --    0.75124   0.77886   0.78060   0.81530   0.84059
 Alpha virt. eigenvalues --    0.84974   0.88614   0.90742   0.91077   0.94028
 Alpha virt. eigenvalues --    0.96334   0.98450   0.99879   1.01055   1.05154
 Alpha virt. eigenvalues --    1.05506   1.06769   1.07922   1.10523   1.11464
 Alpha virt. eigenvalues --    1.12500   1.14010   1.16179   1.17463   1.18881
 Alpha virt. eigenvalues --    1.20660   1.22244   1.25907   1.26572   1.29435
 Alpha virt. eigenvalues --    1.32511   1.36104   1.38962   1.39489   1.43848
 Alpha virt. eigenvalues --    1.45615   1.46244   1.47795   1.49734   1.52808
 Alpha virt. eigenvalues --    1.53320   1.54461   1.56934   1.58066   1.59233
 Alpha virt. eigenvalues --    1.60280   1.60914   1.61081   1.62462   1.62907
 Alpha virt. eigenvalues --    1.63398   1.65576   1.66042   1.66630   1.67499
 Alpha virt. eigenvalues --    1.69573   1.71303   1.71794   1.72792   1.73914
 Alpha virt. eigenvalues --    1.76122   1.77823   1.79180   1.80614   1.81576
 Alpha virt. eigenvalues --    1.85419   1.86803   1.86942   1.89678   1.90971
 Alpha virt. eigenvalues --    1.91473   1.92009   1.92988   1.94376   1.95656
 Alpha virt. eigenvalues --    1.98503   1.99370   2.00097   2.00876   2.03606
 Alpha virt. eigenvalues --    2.05011   2.05171   2.06280   2.08786   2.09137
 Alpha virt. eigenvalues --    2.13140   2.14845   2.15419   2.17783   2.18973
 Alpha virt. eigenvalues --    2.20090   2.20550   2.23738   2.25531   2.28743
 Alpha virt. eigenvalues --    2.29731   2.31464   2.33829   2.35374   2.35758
 Alpha virt. eigenvalues --    2.37734   2.39573   2.41023   2.42751   2.44723
 Alpha virt. eigenvalues --    2.45373   2.47907   2.49520   2.51257   2.53693
 Alpha virt. eigenvalues --    2.57263   2.60070   2.61641   2.62322   2.63196
 Alpha virt. eigenvalues --    2.64181   2.67403   2.68773   2.69638   2.71180
 Alpha virt. eigenvalues --    2.76083   2.77307   2.79771   2.81414   2.83487
 Alpha virt. eigenvalues --    2.86737   2.88207   2.90612   2.92098   2.94384
 Alpha virt. eigenvalues --    2.96145   2.99301   3.01520   3.03526   3.09028
 Alpha virt. eigenvalues --    3.11291   3.12114   3.12586   3.15387   3.17397
 Alpha virt. eigenvalues --    3.18804   3.20359   3.20764   3.23420   3.25225
 Alpha virt. eigenvalues --    3.27943   3.28152   3.29843   3.31632   3.33239
 Alpha virt. eigenvalues --    3.35301   3.36502   3.38637   3.39254   3.41551
 Alpha virt. eigenvalues --    3.44338   3.46241   3.49796   3.50358   3.52040
 Alpha virt. eigenvalues --    3.54140   3.57272   3.60032   3.63693   3.63938
 Alpha virt. eigenvalues --    3.65021   3.66686   3.73472   3.76332   3.79082
 Alpha virt. eigenvalues --    3.82968   3.85075   3.89006   3.92171   3.93103
 Alpha virt. eigenvalues --    3.96543   4.03828   4.06233   4.07254   4.08035
 Alpha virt. eigenvalues --    4.15891   4.16863   4.17542   4.19765   4.22260
 Alpha virt. eigenvalues --    4.23108   4.27226   4.29929   4.40887   4.42856
 Alpha virt. eigenvalues --    4.45695   4.45810   4.48816   4.50554   4.52676
 Alpha virt. eigenvalues --    4.53536   4.58804   4.66009   4.71054   4.77709
 Alpha virt. eigenvalues --    4.80527   4.86236   4.91019   4.95488   5.00421
 Alpha virt. eigenvalues --    5.04682   5.08887   5.14565   5.17202   5.20372
 Alpha virt. eigenvalues --    5.27644   5.29201   5.38071   5.49454   5.57104
 Alpha virt. eigenvalues --    5.68662   5.76664   5.85457   6.22169   6.40586
 Alpha virt. eigenvalues --    6.48321   6.60366   6.63726   6.89614   7.09518
 Alpha virt. eigenvalues --    7.15623   7.76779  10.86642  10.90578  11.37923
 Alpha virt. eigenvalues --   22.33460  22.45754  22.47829  22.79464  23.15596
 Alpha virt. eigenvalues --   25.51143  32.15713  44.02158
          Condensed to atoms (all electrons):
               1          2          3          4          5          6
     1  C    5.822879   0.141814  -0.138708   0.426868   0.020132  -0.001592
     2  C    0.141814   4.736928   0.657910  -0.009528  -0.005362   0.000238
     3  O   -0.138708   0.657910   7.944190  -0.010766  -0.007520   0.000082
     4  C    0.426868  -0.009528  -0.010766   5.034347  -0.021328   0.002802
     5  C    0.020132  -0.005362  -0.007520  -0.021328   4.879798   0.407400
     6  H   -0.001592   0.000238   0.000082   0.002802   0.407400   0.503770
     7  H   -0.006642   0.000492   0.000159   0.008789   0.416845  -0.017901
     8  H    0.014074   0.000474   0.012196  -0.021994   0.407797  -0.020091
     9  N   -0.067713   0.006540   0.007243  -0.019906   0.239669  -0.022538
    10  H    0.009992  -0.000464  -0.000037  -0.012959  -0.019214  -0.004647
    11  H   -0.012340   0.001532   0.001105   0.013097  -0.017834  -0.004961
    12  H   -0.073389   0.005797  -0.000486   0.478079   0.000282  -0.000170
    13  Cl  -0.073399   0.020078  -0.001178   0.282289   0.003898  -0.000296
    14  Br   0.213753  -0.024048   0.000366  -0.058036  -0.004901   0.000915
    15  C   -0.148506   0.353963  -0.094953  -0.007825  -0.000765   0.000010
    16  H    0.004229  -0.018022   0.002584  -0.008486   0.000029   0.000000
    17  H    0.017004  -0.049408   0.007395  -0.000233   0.000018   0.000000
    18  H    0.005950  -0.026803   0.001866   0.005062   0.000026  -0.000000
               7          8          9         10         11         12
     1  C   -0.006642   0.014074  -0.067713   0.009992  -0.012340  -0.073389
     2  C    0.000492   0.000474   0.006540  -0.000464   0.001532   0.005797
     3  O    0.000159   0.012196   0.007243  -0.000037   0.001105  -0.000486
     4  C    0.008789  -0.021994  -0.019906  -0.012959   0.013097   0.478079
     5  C    0.416845   0.407797   0.239669  -0.019214  -0.017834   0.000282
     6  H   -0.017901  -0.020091  -0.022538  -0.004647  -0.004961  -0.000170
     7  H    0.505458  -0.023589  -0.040443  -0.005075   0.005508   0.001227
     8  H   -0.023589   0.512706  -0.033043   0.005935  -0.004577   0.000254
     9  N   -0.040443  -0.033043   6.662774   0.350235   0.342113  -0.043765
    10  H   -0.005075   0.005935   0.350235   0.409272  -0.021378  -0.001106
    11  H    0.005508  -0.004577   0.342113  -0.021378   0.413617   0.002510
    12  H    0.001227   0.000254  -0.043765  -0.001106   0.002510   0.462244
    13  Cl   0.000116   0.000602  -0.078138   0.004837   0.003811  -0.024991
    14  Br  -0.000644  -0.003493   0.009080  -0.000504  -0.000201  -0.003063
    15  C    0.000024   0.000657   0.001115  -0.000037   0.000148  -0.000851
    16  H   -0.000001  -0.000038  -0.000076  -0.000003  -0.000031   0.000192
    17  H   -0.000000  -0.000031   0.000049  -0.000002  -0.000015   0.000015
    18  H   -0.000001  -0.000024  -0.000081   0.000002   0.000004   0.000063
              13         14         15         16         17         18
     1  C   -0.073399   0.213753  -0.148506   0.004229   0.017004   0.005950
     2  C    0.020078  -0.024048   0.353963  -0.018022  -0.049408  -0.026803
     3  O   -0.001178   0.000366  -0.094953   0.002584   0.007395   0.001866
     4  C    0.282289  -0.058036  -0.007825  -0.008486  -0.000233   0.005062
     5  C    0.003898  -0.004901  -0.000765   0.000029   0.000018   0.000026
     6  H   -0.000296   0.000915   0.000010   0.000000   0.000000  -0.000000
     7  H    0.000116  -0.000644   0.000024  -0.000001  -0.000000  -0.000001
     8  H    0.000602  -0.003493   0.000657  -0.000038  -0.000031  -0.000024
     9  N   -0.078138   0.009080   0.001115  -0.000076   0.000049  -0.000081
    10  H    0.004837  -0.000504  -0.000037  -0.000003  -0.000002   0.000002
    11  H    0.003811  -0.000201   0.000148  -0.000031  -0.000015   0.000004
    12  H   -0.024991  -0.003063  -0.000851   0.000192   0.000015   0.000063
    13  Cl  17.000069   0.006401  -0.008904   0.009635   0.000098   0.000430
    14  Br   0.006401  35.002176   0.005334   0.000424  -0.000958   0.002204
    15  C   -0.008904   0.005334   5.076052   0.380736   0.403323   0.378312
    16  H    0.009635   0.000424   0.380736   0.517647  -0.015175  -0.016347
    17  H    0.000098  -0.000958   0.403323  -0.015175   0.524312  -0.016975
    18  H    0.000430   0.002204   0.378312  -0.016347  -0.016975   0.516304
 Mulliken charges:
               1
     1  C   -0.154407
     2  C    0.207869
     3  O   -0.381448
     4  C   -0.080271
     5  C   -0.298969
     6  H    0.156979
     7  H    0.155678
     8  H    0.152187
     9  N   -0.313115
    10  H    0.285153
    11  H    0.277892
    12  H    0.197156
    13  Cl  -0.145359
    14  Br  -0.144806
    15  C   -0.337832
    16  H    0.142702
    17  H    0.130583
    18  H    0.150007
 Sum of Mulliken charges =  -0.00000
 Mulliken charges with hydrogens summed into heavy atoms:
               1
     1  C   -0.154407
     2  C    0.207869
     3  O   -0.381448
     4  C    0.116885
     5  C    0.165875
     9  N    0.249930
    13  Cl  -0.145359
    14  Br  -0.144806
    15  C    0.085460
 APT charges:
               1
     1  C   -0.280204
     2  C   -0.179249
     3  O   -0.088946
     4  C   -0.530591
     5  C   -1.010426
     6  H    0.707467
     7  H    0.331700
     8  H    0.085347
     9  N   -0.944808
    10  H    0.779477
    11  H    0.491563
    12  H    0.455768
    13  Cl   0.070327
    14  Br  -0.014798
    15  C   -1.130245
    16  H    0.302965
    17  H    0.600931
    18  H    0.353723
 Sum of APT charges =  -0.00000
 APT charges with hydrogens summed into heavy atoms:
               1
     1  C   -0.280204
     2  C   -0.179249
     3  O   -0.088946
     4  C   -0.074823
     5  C    0.114088
     9  N    0.326232
    13  Cl   0.070327
    14  Br  -0.014798
    15  C    0.127373
 Electronic spatial extent (au):  <R**2>=           2119.3815
 Charge=             -0.0000 electrons
 Dipole moment (field-independent basis, Debye):
    X=             -4.1951    Y=             -4.4477    Z=             -0.5214  Tot=              6.1362
 Quadrupole moment (field-independent basis, Debye-Ang):
   XX=            -71.9881   YY=            -60.0124   ZZ=            -80.8900
   XY=              8.1939   XZ=             -3.5157   YZ=             -3.9629
 Traceless Quadrupole moment (field-independent basis, Debye-Ang):
   XX=             -1.0246   YY=             10.9511   ZZ=             -9.9265
   XY=              8.1939   XZ=             -3.5157   YZ=             -3.9629
 Octapole moment (field-independent basis, Debye-Ang**2):
  XXX=             29.1885  YYY=            -26.5051  ZZZ=            -22.6397  XYY=             -2.2155
  XXY=            -19.8780  XXZ=              6.2127  XZZ=              8.4858  YZZ=            -20.9393
  YYZ=             -0.0193  XYZ=              2.5542
 Hexadecapole moment (field-independent basis, Debye-Ang**3):
 XXXX=          -1069.8939 YYYY=           -881.3091 ZZZZ=           -490.0751 XXXY=             13.7416
 XXXZ=            -41.2676 YYYX=             25.9891 YYYZ=             -5.0405 ZZZX=            -30.7684
 ZZZY=            -20.0316 XXYY=           -311.3141 XXZZ=           -258.1606 YYZZ=           -232.7412
 XXYZ=             -3.9893 YYXZ=            -13.3273 ZZXY=              3.3447
 N-N= 8.282269131794D+02 E-N=-9.664441173628D+03  KE= 3.354559711635D+03
  Exact polarizability:   0.000   0.000   0.000   0.000   0.000   0.000
 Approx polarizability: 134.646   0.590 118.984  -0.240  -4.158 111.394
   1 Symmetry operations used in ECPInt.
 ECPInt:  NShTT=   10153 NPrTT=   34213 LenC2=    9757 LenP2D=   24593.
 LDataN:  DoStor=T MaxTD1= 8 Len=  415
 D2PCM: PCM CHGder 2nd derivatives, FixD1E=F FixD2E=F DoIter=F DoCFld=F I1PDM=0
 Calling FoFJK, ICntrl=    100147 FMM=F ISym2X=0 I1Cent= 0 IOpClX= 0 NMat=1 NMatS=1 NMatT=0.
 ***** Axes restored to original set *****
 -------------------------------------------------------------------
 Center     Atomic                   Forces (Hartrees/Bohr)
 Number     Number              X              Y              Z
 -------------------------------------------------------------------
      1        6          -0.000012532   -0.000013477    0.000006807
      2        6           0.000007695    0.000013127   -0.000004136
      3        8           0.000008647   -0.000007832   -0.000002476
      4        6           0.006226141    0.010399929   -0.010105713
      5        6          -0.000003711   -0.000001093    0.000029689
      6        1           0.000007075   -0.000002541   -0.000006102
      7        1          -0.000000830    0.000000343   -0.000009476
      8        1           0.000006661   -0.000008535   -0.000002468
      9        7          -0.006231737   -0.010413256    0.010068740
     10        1           0.000007049    0.000011380   -0.000004771
     11        1           0.000014237    0.000010716    0.000018784
     12        1          -0.000006093    0.000001911   -0.000002271
     13       17          -0.000011836    0.000011952   -0.000002878
     14       35          -0.000008227    0.000001338   -0.000005542
     15        6          -0.000003495   -0.000004929    0.000004443
     16        1           0.000000268    0.000001215    0.000009916
     17        1          -0.000000228   -0.000001774    0.000004580
     18        1           0.000000919    0.000001526    0.000002875
 -------------------------------------------------------------------
 Cartesian Forces:  Max     0.010413256 RMS     0.003035903
 FormGI is forming the generalized inverse of G from B-inverse, IUseBI=4.

 GradGradGradGradGradGradGradGradGradGradGradGradGradGradGradGradGradGrad
 Berny optimization.
 Internal  Forces:  Max     0.015776422 RMS     0.001752956
 Search for a saddle point.
 Step number   1 out of a maximum of   70
 All quantities printed in internal units (Hartrees-Bohrs-Radians)
 Swapping is turned off.
 Second derivative matrix not updated -- analytic derivatives used.
 ITU=  0
     Eigenvalues ---   -0.02474  -0.01003   0.00075   0.00181   0.00209
     Eigenvalues ---    0.00722   0.01560   0.01887   0.03428   0.03663
     Eigenvalues ---    0.04418   0.04665   0.04798   0.05115   0.05173
     Eigenvalues ---    0.05446   0.06251   0.08351   0.09965   0.11067
     Eigenvalues ---    0.12151   0.12653   0.12905   0.13316   0.13397
     Eigenvalues ---    0.15428   0.16899   0.17399   0.18020   0.19013
     Eigenvalues ---    0.20552   0.21209   0.23348   0.25841   0.30990
     Eigenvalues ---    0.31838   0.34104   0.34195   0.34428   0.34795
     Eigenvalues ---    0.34824   0.35205   0.36035   0.36740   0.44959
     Eigenvalues ---    0.45135   0.53327   0.83342
 Eigenvectors required to have negative eigenvalues:
                          R6        D7        D5        D10       A10
   1                    0.84208  -0.27373  -0.18312  -0.18268  -0.17479
                          R8        D9        D3        A8        D4
   1                   -0.15111   0.11334  -0.10759   0.10391  -0.10112
 RFO step:  Lambda0=5.779600304D-03 Lambda=-1.03954143D-02.
 Linear search not attempted -- option 19 set.
 Maximum step size (   0.080) exceeded in Quadratic search.
    -- Step size scaled by   0.256
 Iteration  1 RMS(Cart)=  0.03730162 RMS(Int)=  0.00041795
 Iteration  2 RMS(Cart)=  0.00057212 RMS(Int)=  0.00005539
 Iteration  3 RMS(Cart)=  0.00000018 RMS(Int)=  0.00005539
 Variable       Old X    -DE/DX   Delta X   Delta X   Delta X     New X
                                 (Linear)    (Quad)   (Total)
    R1        2.83420  -0.00000   0.00000  -0.00177  -0.00177   2.83243
    R2        2.57069  -0.00001   0.00000   0.00957   0.00957   2.58026
    R3        3.61770  -0.00001   0.00000   0.00416   0.00416   3.62186
    R4        2.29217  -0.00000   0.00000   0.00148   0.00148   2.29365
    R5        2.83697  -0.00001   0.00000   0.00101   0.00101   2.83797
    R6        3.54227   0.01578   0.00000  -0.06933  -0.06933   3.47293
    R7        2.04459   0.00000   0.00000   0.00139   0.00139   2.04598
    R8        3.39417   0.00001   0.00000   0.01727   0.01727   3.41143
    R9        2.05941  -0.00000   0.00000  -0.00101  -0.00101   2.05840
   R10        2.05763   0.00000   0.00000  -0.00064  -0.00064   2.05700
   R11        2.05702  -0.00000   0.00000  -0.00068  -0.00068   2.05634
   R12        2.76027   0.00002   0.00000   0.00263   0.00263   2.76289
   R13        1.91771  -0.00001   0.00000   0.00057   0.00057   1.91827
   R14        1.91667   0.00001   0.00000   0.00070   0.00070   1.91737
   R15        2.06273  -0.00000   0.00000  -0.00007  -0.00007   2.06266
   R16        2.05675  -0.00000   0.00000   0.00019   0.00019   2.05694
   R17        2.06534   0.00000   0.00000  -0.00013  -0.00013   2.06521
    A1        2.18693   0.00001   0.00000  -0.00262  -0.00277   2.18416
    A2        1.97711  -0.00001   0.00000  -0.00040  -0.00057   1.97654
    A3        2.07349  -0.00001   0.00000  -0.00597  -0.00611   2.06738
    A4        2.12093  -0.00001   0.00000   0.00348   0.00348   2.12441
    A5        2.03753   0.00001   0.00000   0.00042   0.00041   2.03794
    A6        2.12444   0.00000   0.00000  -0.00394  -0.00394   2.12050
    A7        2.03076  -0.00002   0.00000   0.00561   0.00564   2.03639
    A8        2.06906   0.00000   0.00000  -0.01155  -0.01178   2.05728
    A9        2.03575  -0.00000   0.00000  -0.00261  -0.00273   2.03302
   A10        1.65353   0.00000   0.00000   0.02314   0.02317   1.67669
   A11        1.66131   0.00002   0.00000   0.00576   0.00578   1.66709
   A12        1.93722  -0.00000   0.00000  -0.01068  -0.01091   1.92631
   A13        1.90732  -0.00000   0.00000   0.00232   0.00231   1.90963
   A14        1.90885  -0.00001   0.00000   0.00317   0.00316   1.91200
   A15        1.94900   0.00000   0.00000  -0.00678  -0.00679   1.94221
   A16        1.90292  -0.00000   0.00000   0.00324   0.00325   1.90617
   A17        1.90503  -0.00001   0.00000  -0.00054  -0.00054   1.90448
   A18        1.89018   0.00001   0.00000  -0.00123  -0.00123   1.88895
   A19        1.93186   0.00004   0.00000   0.00340   0.00340   1.93526
   A20        1.91829  -0.00002   0.00000  -0.00590  -0.00590   1.91239
   A21        1.85267  -0.00001   0.00000   0.00268   0.00267   1.85534
   A22        1.94875  -0.00000   0.00000   0.00039   0.00039   1.94915
   A23        1.93445  -0.00002   0.00000  -0.00040  -0.00041   1.93403
   A24        1.87460   0.00001   0.00000  -0.00023  -0.00023   1.87437
   A25        1.90855  -0.00000   0.00000   0.00091   0.00091   1.90946
   A26        1.94370   0.00000   0.00000   0.00057   0.00057   1.94427
   A27        1.89638  -0.00000   0.00000  -0.00124  -0.00124   1.89514
   A28        1.92848  -0.00000   0.00000  -0.00029  -0.00029   1.92819
   A29        1.86237   0.00000   0.00000  -0.00042  -0.00042   1.86195
   A30        1.92230   0.00000   0.00000   0.00042   0.00042   1.92272
    D1        1.46748   0.00000   0.00000   0.01475   0.01473   1.48222
    D2       -1.69976   0.00000   0.00000   0.01267   0.01265  -1.68711
    D3       -1.34809   0.00000   0.00000   0.04695   0.04697  -1.30112
    D4        1.76785   0.00000   0.00000   0.04487   0.04489   1.81274
    D5       -1.21397  -0.00001   0.00000   0.04520   0.04514  -1.16883
    D6        3.11455   0.00000   0.00000   0.01790   0.01798   3.13253
    D7        0.72656   0.00000   0.00000   0.05508   0.05499   0.78155
    D8        1.58524  -0.00001   0.00000   0.01236   0.01235   1.59759
    D9       -0.36942   0.00000   0.00000  -0.01494  -0.01481  -0.38423
   D10       -2.75742   0.00000   0.00000   0.02224   0.02220  -2.73522
   D11        0.99218  -0.00000   0.00000  -0.00224  -0.00224   0.98994
   D12        3.12849  -0.00000   0.00000  -0.00161  -0.00161   3.12688
   D13       -1.03437  -0.00000   0.00000  -0.00154  -0.00155  -1.03591
   D14       -2.17512   0.00000   0.00000  -0.00421  -0.00421  -2.17932
   D15       -0.03881  -0.00000   0.00000  -0.00357  -0.00357  -0.04238
   D16        2.08152  -0.00000   0.00000  -0.00351  -0.00351   2.07801
   D17       -0.87524   0.00001   0.00000  -0.00631  -0.00636  -0.88160
   D18       -3.03596  -0.00000   0.00000  -0.00503  -0.00508  -3.04104
   D19        1.22514   0.00000   0.00000  -0.00328  -0.00332   1.22182
   D20        1.30968   0.00001   0.00000  -0.00230  -0.00228   1.30740
   D21       -0.85104  -0.00001   0.00000  -0.00103  -0.00100  -0.85204
   D22       -2.87312  -0.00000   0.00000   0.00073   0.00076  -2.87236
   D23       -3.02530   0.00001   0.00000  -0.00936  -0.00935  -3.03465
   D24        1.09717  -0.00001   0.00000  -0.00809  -0.00807   1.08910
   D25       -0.92491  -0.00000   0.00000  -0.00633  -0.00631  -0.93123
   D26        3.08905   0.00000   0.00000   0.00435   0.00435   3.09340
   D27       -1.05102   0.00000   0.00000  -0.00053  -0.00053  -1.05155
   D28        1.03818   0.00000   0.00000  -0.00084  -0.00084   1.03734
   D29       -1.08338  -0.00000   0.00000   0.00253   0.00253  -1.08084
   D30        1.05974   0.00000   0.00000  -0.00235  -0.00235   1.05739
   D31       -3.13424   0.00000   0.00000  -0.00266  -0.00266  -3.13690
   D32        0.98623  -0.00000   0.00000   0.00542   0.00541   0.99164
   D33        3.12935   0.00000   0.00000   0.00053   0.00053   3.12987
   D34       -1.06464   0.00000   0.00000   0.00022   0.00022  -1.06442
         Item               Value     Threshold  Converged?
 Maximum Force            0.015776     0.000450     NO 
 RMS     Force            0.001753     0.000300     NO 
 Maximum Displacement     0.121192     0.001800     NO 
 RMS     Displacement     0.037336     0.001200     NO 
 Predicted change in Energy= 9.508717D-04
 GradGradGradGradGradGradGradGradGradGradGradGradGradGradGradGradGradGrad

                          Input orientation:                          
 ---------------------------------------------------------------------
 Center     Atomic      Atomic             Coordinates (Angstroms)
 Number     Number       Type             X           Y           Z
 ---------------------------------------------------------------------
      1          6           0        0.151723    0.309005   -0.226446
      2          6           0        0.072521    1.365927    0.833374
      3          8           0        0.144062    1.092613    2.013784
      4          6           0       -0.901464   -0.436090   -0.673640
      5          6           0       -0.610304   -2.452761    1.137132
      6          1           0       -1.036224   -3.123204    1.882503
      7          1           0       -0.117064   -3.038427    0.363456
      8          1           0        0.118876   -1.798228    1.610411
      9          7           0       -1.641949   -1.619074    0.522072
     10          1           0       -2.346968   -2.179450    0.053704
     11          1           0       -2.116209   -1.057643    1.221602
     12          1           0       -0.712060   -1.164007   -1.452402
     13         17           0       -2.434880    0.456298   -1.007126
     14         35           0        1.925649   -0.367408   -0.489186
     15          6           0       -0.062934    2.785916    0.363628
     16          1           0       -0.944984    2.874636   -0.273175
     17          1           0       -0.127473    3.477116    1.202006
     18          1           0        0.800361    3.030182   -0.260395
 ---------------------------------------------------------------------
                    Distance matrix (angstroms):
                    1          2          3          4          5
     1  C    0.000000
     2  C    1.498859   0.000000
     3  O    2.373337   1.213748   0.000000
     4  C    1.365413   2.543031   3.263787   0.000000
     5  C    3.172913   3.891131   3.729244   2.725918   0.000000
     6  H    4.199874   4.741549   4.379889   3.711146   1.089257
     7  H    3.409623   4.433408   4.456149   2.909125   1.088515
     8  H    2.795631   3.258499   2.918957   2.848403   1.088169
     9  N    2.737705   3.456378   3.573274   1.837796   1.462061
    10  H    3.537562   4.362512   4.555605   2.378615   2.065070
    11  H    3.017961   3.288610   3.218692   2.335353   2.054565
    12  H    2.102107   3.498701   4.223710   1.082685   2.894292
    13  Cl   2.705859   3.240667   4.022653   1.805252   4.048400
    14  Br   1.916607   2.861417   3.401554   2.833957   3.663969
    15  C    2.555260   1.501791   2.373423   3.487173   5.323688
    16  H    2.790594   2.129781   3.097064   3.335143   5.521063
    17  H    3.486452   2.152441   2.533489   4.407980   5.949854
    18  H    2.797621   2.120336   3.058887   3.883558   5.831442
                    6          7          8          9         10
     6  H    0.000000
     7  H    1.777511   0.000000
     8  H    1.778722   1.774446   0.000000
     9  N    2.116621   2.089257   2.077760   0.000000
    10  H    2.439924   2.409618   2.940927   1.015106   0.000000
    11  H    2.422747   2.942194   2.386472   1.014628   1.635752
    12  H    3.881382   2.676716   3.236281   2.229423   2.443850
    13  Cl   4.808226   4.411788   4.296052   2.697102   2.842579
    14  Br   4.689565   3.469008   3.117689   3.913703   4.672631
    15  C    6.178347   5.824594   4.754146   4.682129   5.474277
    16  H    6.374117   6.004587   5.149306   4.616450   5.255111
    17  H    6.697248   6.569290   5.296861   5.359767   6.183970
    18  H    6.769728   6.169187   5.222823   5.309681   6.094636
                   11         12         13         14         15
    11  H    0.000000
    12  H    3.022126   0.000000
    13  Cl   2.713080   2.406610   0.000000
    14  Br   4.442954   2.918881   4.467770   0.000000
    15  C    4.441284   4.395591   3.596138   3.824292   0.000000
    16  H    4.366801   4.213724   2.933740   4.335672   1.091513
    17  H    4.951716   5.378442   4.396559   4.675019   1.088485
    18  H    5.235744   4.615140   4.201103   3.586395   1.092863
                   16         17         18
    16  H    0.000000
    17  H    1.790939   0.000000
    18  H    1.752309   1.788643   0.000000
 Stoichiometry    C5H9BrClNO
 Framework group  C1[X(C5H9BrClNO)]
 Deg. of freedom    48
 Full point group                 C1      NOp   1
 Largest Abelian subgroup         C1      NOp   1
 Largest concise Abelian subgroup C1      NOp   1
                         Standard orientation:                         
 ---------------------------------------------------------------------
 Center     Atomic      Atomic             Coordinates (Angstroms)
 Number     Number       Type             X           Y           Z
 ---------------------------------------------------------------------
      1          6           0        0.133227    0.322379   -0.214905
      2          6           0        0.035945    1.384317    0.838377
      3          8           0        0.119742    1.120549    2.020150
      4          6           0       -0.905357   -0.449011   -0.651546
      5          6           0       -0.559726   -2.446552    1.170814
      6          1           0       -0.966650   -3.121350    1.922838
      7          1           0       -0.057559   -3.026209    0.398356
      8          1           0        0.157098   -1.772761    1.635872
      9          7           0       -1.612951   -1.640228    0.555851
     10          1           0       -2.307699   -2.219316    0.094957
     11          1           0       -2.095989   -1.084870    1.254223
     12          1           0       -0.703791   -1.177697   -1.426526
     13         17           0       -2.460064    0.406676   -0.982636
     14         35           0        1.920439   -0.315999   -0.482726
     15          6           0       -0.133679    2.797761    0.360068
     16          1           0       -1.020804    2.862517   -0.272558
     17          1           0       -0.209279    3.492926    1.194233
     18          1           0        0.720669    3.057071   -0.270168
 ---------------------------------------------------------------------
 Rotational constants (GHZ):           1.0362199           0.6922942           0.5690069
 Standard basis: def2TZVP (5D, 7F)
 There are   403 symmetry adapted cartesian basis functions of A   symmetry.
 There are   356 symmetry adapted basis functions of A   symmetry.
   356 basis functions,   612 primitive gaussians,   403 cartesian basis functions
    53 alpha electrons       53 beta electrons
       nuclear repulsion energy       828.8728447012 Hartrees.
 NAtoms=   18 NActive=   18 NUniq=   18 SFac= 1.00D+00 NAtFMM=   60 NAOKFM=F Big=F
 Integral buffers will be    131072 words long.
 Raffenetti 2 integral format.
 Two-electron integral symmetry is turned on.
 Nuclear repulsion after empirical dispersion term =      828.8606491322 Hartrees.
 ------------------------------------------------------------------------------
 Polarizable Continuum Model (PCM)
 =================================
 Model                : PCM.
 Atomic radii         : UFF (Universal Force Field).
 Polarization charges : Total charges.
 Charge compensation  : None.
 Solution method      : Matrix inversion.
 Cavity type          : Scaled VdW (van der Waals Surface) (Alpha=1.100).
 Cavity algorithm     : GePol (No added spheres)
                        Default sphere list used, NSphG=   18.
                        Lebedev-Laikov grids with approx.  5.0 points / Ang**2.
                        Smoothing algorithm: York/Karplus (Gamma=1.0000).
                        Polarization charges: spherical gaussians, with
                                              point-specific exponents (IZeta= 3).
                        Self-potential: point-specific (ISelfS= 7).
                        Self-field    : sphere-specific E.n sum rule (ISelfD= 2).
 1st derivatives      : Analytical E(r).r(x)/FMM algorithm (CHGder, D1EAlg=3).
                        Cavity 1st derivative terms included.
 Solvent              : Water, Eps=  78.355300 Eps(inf)=   1.777849
 ------------------------------------------------------------------------------
 Spheres list:
 ISph  on   Nord     Re0    Alpha      Xe            Ye            Ze
    1   C      1    1.9255  1.100      0.133227      0.322379     -0.214905
    2   C      2    1.9255  1.100      0.035945      1.384317      0.838377
    3   O      3    1.7500  1.100      0.119742      1.120549      2.020150
    4   C      4    1.9255  1.100     -0.905357     -0.449011     -0.651546
    5   C      5    1.9255  1.100     -0.559726     -2.446552      1.170814
    6   H      6    1.4430  1.100     -0.966650     -3.121350      1.922838
    7   H      7    1.4430  1.100     -0.057559     -3.026209      0.398356
    8   H      8    1.4430  1.100      0.157098     -1.772761      1.635872
    9   N      9    1.8300  1.100     -1.612951     -1.640228      0.555851
   10   H     10    1.4430  1.100     -2.307699     -2.219316      0.094957
   11   H     11    1.4430  1.100     -2.095989     -1.084870      1.254223
   12   H     12    1.4430  1.100     -0.703791     -1.177697     -1.426526
   13  Cl     13    1.9735  1.100     -2.460064      0.406676     -0.982636
   14  Br     14    2.0945  1.100      1.920439     -0.315999     -0.482726
   15   C     15    1.9255  1.100     -0.133679      2.797761      0.360068
   16   H     16    1.4430  1.100     -1.020804      2.862517     -0.272558
   17   H     17    1.4430  1.100     -0.209279      3.492926      1.194233
   18   H     18    1.4430  1.100      0.720669      3.057071     -0.270168
 ------------------------------------------------------------------------------
 One-electron integrals computed using PRISM.
   1 Symmetry operations used in ECPInt.
 ECPInt:  NShTT=   10153 NPrTT=   34213 LenC2=    9767 LenP2D=   24622.
 LDataN:  DoStor=T MaxTD1= 6 Len=  172
 NBasis=   356 RedAO= T EigKep=  1.28D-04  NBF=   356
 NBsUse=   356 1.00D-06 EigRej= -1.00D+00 NBFU=   356
 Initial guess from the checkpoint file:  "/beegfs/scratch/user/q/tla25/Gau-50886.chk"
 B after Tr=    -0.000000   -0.000000   -0.000000
         Rot=    0.999946    0.003490   -0.003155   -0.009284 Ang=   1.19 deg.
 ExpMin= 9.52D-02 ExpMax= 5.65D+05 ExpMxC= 5.46D+03 IAcc=2 IRadAn=         4 AccDes= 0.00D+00
 Harris functional with IExCor= 4639 and IRadAn=       4 diagonalized for initial guess.
 HarFok:  IExCor= 4639 AccDes= 0.00D+00 IRadAn=         4 IDoV= 1 UseB2=F ITyADJ=14
 ICtDFT=  3500011 ScaDFX=  1.000000  1.000000  1.000000  1.000000
 FoFCou: FMM=F IPFlag=           0 FMFlag=      100000 FMFlg1=           0
         NFxFlg=           0 DoJE=T BraDBF=F KetDBF=T FulRan=T
         wScrn=  0.000000 ICntrl=       500 IOpCl=  0 I1Cent=   200000004 NGrid=           0
         NMat0=    1 NMatS0=      1 NMatT0=    0 NMatD0=    1 NMtDS0=    0 NMtDT0=    0
 Petite list used in FoFCou.
 Requested convergence on RMS density matrix=1.00D-08 within 128 cycles.
 Requested convergence on MAX density matrix=1.00D-06.
 Requested convergence on             energy=1.00D-06.
 No special actions if energy rises.
 Inv3:  Mode=1 IEnd=     7651227.
 Iteration    1 A*A^-1 deviation from unit magnitude is 4.11D-15 for   1578.
 Iteration    1 A*A^-1 deviation from orthogonality  is 2.75D-15 for   1589    380.
 Iteration    1 A^-1*A deviation from unit magnitude is 4.11D-15 for   1578.
 Iteration    1 A^-1*A deviation from orthogonality  is 1.77D-15 for   1586   1490.
 Error on total polarization charges =  0.01409
 SCF Done:  E(RwB97XD) =  -3360.30573426     A.U. after   14 cycles
            NFock= 14  Conv=0.31D-08     -V/T= 2.0017
   1 Symmetry operations used in ECPInt.
 ECPInt:  NShTT=   10153 NPrTT=   34213 LenC2=    9767 LenP2D=   24622.
 LDataN:  DoStor=T MaxTD1= 7 Len=  274
 D1PCM: PCM CHGder 1st derivatives, ID1Alg=3 FixD1E=F DoIter=F DoCFld=F I1PDM=0.
 Calling FoFJK, ICntrl=      2127 FMM=F ISym2X=0 I1Cent= 0 IOpClX= 0 NMat=1 NMatS=1 NMatT=0.
 ***** Axes restored to original set *****
 -------------------------------------------------------------------
 Center     Atomic                   Forces (Hartrees/Bohr)
 Number     Number              X              Y              Z
 -------------------------------------------------------------------
      1        6           0.000182724    0.000349509   -0.000068271
      2        6          -0.000291622   -0.000190456    0.000122387
      3        8           0.000601170    0.000025648    0.000082171
      4        6           0.004976042    0.008331339   -0.008570495
      5        6           0.000007579   -0.000025431    0.000004473
      6        1           0.000013717   -0.000025929    0.000001833
      7        1          -0.000002692   -0.000003281   -0.000006444
      8        1           0.000018153   -0.000005633   -0.000001834
      9        7          -0.005034634   -0.008027753    0.008069826
     10        1          -0.000009974    0.000011171    0.000044297
     11        1           0.000028605    0.000021098    0.000008446
     12        1          -0.000022673   -0.000166099    0.000189804
     13       17          -0.000100375   -0.000001501   -0.000070814
     14       35          -0.000040124   -0.000273637    0.000220534
     15        6          -0.000328627   -0.000053958   -0.000041718
     16        1           0.000038368    0.000040457   -0.000029901
     17        1          -0.000053916   -0.000014664   -0.000001787
     18        1           0.000018280    0.000009121    0.000047493
 -------------------------------------------------------------------
 Cartesian Forces:  Max     0.008570495 RMS     0.002447741

 GradGradGradGradGradGradGradGradGradGradGradGradGradGradGradGradGradGrad
 Berny optimization.
 FormGI is forming the generalized inverse of G from B-inverse, IUseBI=4.
 Internal  Forces:  Max     0.012483978 RMS     0.001392134
 Search for a saddle point.
 Step number   2 out of a maximum of   70
 All quantities printed in internal units (Hartrees-Bohrs-Radians)
 Swapping is turned off.
 Update second derivatives using D2CorX and points    1    2
 ITU=  0  0
     Eigenvalues ---   -0.02595  -0.01007   0.00076   0.00182   0.00209
     Eigenvalues ---    0.00735   0.01556   0.01889   0.03430   0.03662
     Eigenvalues ---    0.04420   0.04665   0.04798   0.05115   0.05173
     Eigenvalues ---    0.05446   0.06251   0.08350   0.09969   0.11067
     Eigenvalues ---    0.12150   0.12653   0.12905   0.13314   0.13396
     Eigenvalues ---    0.15421   0.16894   0.17399   0.18019   0.19008
     Eigenvalues ---    0.20552   0.21207   0.23346   0.25808   0.30990
     Eigenvalues ---    0.31838   0.34104   0.34195   0.34428   0.34795
     Eigenvalues ---    0.34824   0.35205   0.36035   0.36738   0.44959
     Eigenvalues ---    0.45135   0.53301   0.83334
 Eigenvectors required to have negative eigenvalues:
                          R6        D7        D10       D5        A10
   1                    0.83968  -0.27230  -0.18242  -0.18192  -0.17370
                          R8        D3        D4        D9        A8
   1                   -0.15495  -0.11806  -0.10943   0.10636   0.10620
 RFO step:  Lambda0=3.607884780D-03 Lambda=-1.07407192D-02.
 Linear search not attempted -- option 19 set.
 Maximum step size (   0.080) exceeded in Quadratic search.
    -- Step size scaled by   0.331
 Iteration  1 RMS(Cart)=  0.04177734 RMS(Int)=  0.00052771
 Iteration  2 RMS(Cart)=  0.00073178 RMS(Int)=  0.00005470
 Iteration  3 RMS(Cart)=  0.00000026 RMS(Int)=  0.00005470
 Variable       Old X    -DE/DX   Delta X   Delta X   Delta X     New X
                                 (Linear)    (Quad)   (Total)
    R1        2.83243  -0.00001   0.00000  -0.00201  -0.00201   2.83042
    R2        2.58026   0.00014   0.00000   0.01022   0.01022   2.59048
    R3        3.62186   0.00003   0.00000   0.00468   0.00468   3.62655
    R4        2.29365   0.00011   0.00000   0.00169   0.00169   2.29535
    R5        2.83797   0.00002   0.00000   0.00117   0.00117   2.83914
    R6        3.47293   0.01248   0.00000  -0.06877  -0.06877   3.40416
    R7        2.04598  -0.00003   0.00000   0.00126   0.00126   2.04724
    R8        3.41143   0.00009   0.00000   0.01801   0.01801   3.42945
    R9        2.05840   0.00001   0.00000  -0.00097  -0.00097   2.05742
   R10        2.05700   0.00000   0.00000  -0.00066  -0.00066   2.05633
   R11        2.05634   0.00001   0.00000  -0.00070  -0.00070   2.05564
   R12        2.76289   0.00006   0.00000   0.00298   0.00298   2.76588
   R13        1.91827  -0.00002   0.00000   0.00058   0.00058   1.91885
   R14        1.91737   0.00000   0.00000   0.00072   0.00072   1.91809
   R15        2.06266  -0.00001   0.00000  -0.00013  -0.00013   2.06253
   R16        2.05694  -0.00001   0.00000   0.00018   0.00018   2.05712
   R17        2.06521  -0.00001   0.00000  -0.00017  -0.00017   2.06505
    A1        2.18416   0.00004   0.00000  -0.00266  -0.00284   2.18131
    A2        1.97654  -0.00000   0.00000  -0.00065  -0.00085   1.97569
    A3        2.06738  -0.00010   0.00000  -0.00745  -0.00762   2.05976
    A4        2.12441   0.00001   0.00000   0.00369   0.00369   2.12809
    A5        2.03794  -0.00003   0.00000   0.00031   0.00031   2.03825
    A6        2.12050   0.00003   0.00000  -0.00408  -0.00408   2.11642
    A7        2.03639  -0.00019   0.00000   0.00431   0.00433   2.04072
    A8        2.05728   0.00010   0.00000  -0.01162  -0.01181   2.04548
    A9        2.03302   0.00010   0.00000  -0.00179  -0.00190   2.03111
   A10        1.67669  -0.00007   0.00000   0.02266   0.02269   1.69938
   A11        1.66709   0.00004   0.00000   0.00597   0.00598   1.67307
   A12        1.92631  -0.00003   0.00000  -0.01134  -0.01156   1.91475
   A13        1.90963  -0.00001   0.00000   0.00226   0.00225   1.91188
   A14        1.91200  -0.00001   0.00000   0.00328   0.00327   1.91528
   A15        1.94221   0.00003   0.00000  -0.00699  -0.00699   1.93521
   A16        1.90617  -0.00001   0.00000   0.00338   0.00338   1.90955
   A17        1.90448  -0.00001   0.00000  -0.00065  -0.00065   1.90383
   A18        1.88895   0.00001   0.00000  -0.00116  -0.00117   1.88778
   A19        1.93526   0.00001   0.00000   0.00364   0.00364   1.93890
   A20        1.91239   0.00002   0.00000  -0.00463  -0.00463   1.90776
   A21        1.85534  -0.00002   0.00000   0.00207   0.00206   1.85741
   A22        1.94915  -0.00002   0.00000  -0.00016  -0.00016   1.94899
   A23        1.93403   0.00001   0.00000  -0.00049  -0.00050   1.93353
   A24        1.87437   0.00000   0.00000  -0.00052  -0.00051   1.87386
   A25        1.90946   0.00008   0.00000   0.00196   0.00196   1.91142
   A26        1.94427  -0.00002   0.00000   0.00044   0.00044   1.94471
   A27        1.89514  -0.00002   0.00000  -0.00170  -0.00170   1.89344
   A28        1.92819  -0.00003   0.00000  -0.00061  -0.00061   1.92758
   A29        1.86195  -0.00002   0.00000  -0.00055  -0.00055   1.86139
   A30        1.92272   0.00000   0.00000   0.00041   0.00041   1.92313
    D1        1.48222   0.00036   0.00000   0.02222   0.02220   1.50441
    D2       -1.68711   0.00031   0.00000   0.01899   0.01896  -1.66815
    D3       -1.30112   0.00057   0.00000   0.05740   0.05743  -1.24369
    D4        1.81274   0.00052   0.00000   0.05418   0.05420   1.86693
    D5       -1.16883   0.00012   0.00000   0.04775   0.04768  -1.12116
    D6        3.13253   0.00030   0.00000   0.02225   0.02231  -3.12834
    D7        0.78155   0.00011   0.00000   0.05759   0.05750   0.83904
    D8        1.59759  -0.00007   0.00000   0.01221   0.01221   1.60980
    D9       -0.38423   0.00010   0.00000  -0.01328  -0.01315  -0.39738
   D10       -2.73522  -0.00009   0.00000   0.02206   0.02204  -2.71318
   D11        0.98994  -0.00002   0.00000  -0.00323  -0.00323   0.98670
   D12        3.12688  -0.00002   0.00000  -0.00236  -0.00236   3.12452
   D13       -1.03591  -0.00003   0.00000  -0.00269  -0.00269  -1.03860
   D14       -2.17932  -0.00007   0.00000  -0.00631  -0.00631  -2.18563
   D15       -0.04238  -0.00007   0.00000  -0.00544  -0.00543  -0.04781
   D16        2.07801  -0.00008   0.00000  -0.00577  -0.00577   2.07224
   D17       -0.88160   0.00000   0.00000  -0.00668  -0.00672  -0.88832
   D18       -3.04104   0.00001   0.00000  -0.00574  -0.00577  -3.04681
   D19        1.22182   0.00001   0.00000  -0.00394  -0.00398   1.21785
   D20        1.30740  -0.00002   0.00000  -0.00308  -0.00306   1.30435
   D21       -0.85204  -0.00001   0.00000  -0.00214  -0.00211  -0.85415
   D22       -2.87236  -0.00001   0.00000  -0.00034  -0.00032  -2.87268
   D23       -3.03465  -0.00006   0.00000  -0.01041  -0.01040  -3.04505
   D24        1.08910  -0.00005   0.00000  -0.00947  -0.00945   1.07964
   D25       -0.93123  -0.00005   0.00000  -0.00768  -0.00766  -0.93889
   D26        3.09340  -0.00001   0.00000   0.00349   0.00349   3.09689
   D27       -1.05155   0.00001   0.00000   0.00002   0.00002  -1.05153
   D28        1.03734   0.00001   0.00000  -0.00107  -0.00107   1.03627
   D29       -1.08084  -0.00001   0.00000   0.00143   0.00143  -1.07941
   D30        1.05739   0.00001   0.00000  -0.00203  -0.00203   1.05536
   D31       -3.13690   0.00000   0.00000  -0.00313  -0.00312  -3.14002
   D32        0.99164  -0.00002   0.00000   0.00445   0.00445   0.99609
   D33        3.12987   0.00000   0.00000   0.00099   0.00098   3.13086
   D34       -1.06442  -0.00000   0.00000  -0.00011  -0.00011  -1.06452
         Item               Value     Threshold  Converged?
 Maximum Force            0.012484     0.000450     NO 
 RMS     Force            0.001392     0.000300     NO 
 Maximum Displacement     0.141885     0.001800     NO 
 RMS     Displacement     0.041863     0.001200     NO 
 Predicted change in Energy= 5.960858D-04
 GradGradGradGradGradGradGradGradGradGradGradGradGradGradGradGradGradGrad

                          Input orientation:                          
 ---------------------------------------------------------------------
 Center     Atomic      Atomic             Coordinates (Angstroms)
 Number     Number       Type             X           Y           Z
 ---------------------------------------------------------------------
      1          6           0        0.166972    0.298507   -0.245152
      2          6           0        0.097208    1.338847    0.830123
      3          8           0        0.219145    1.057221    2.005360
      4          6           0       -0.892702   -0.454638   -0.679917
      5          6           0       -0.614277   -2.421936    1.146846
      6          1           0       -1.059533   -3.072139    1.898071
      7          1           0       -0.125103   -3.026658    0.385845
      8          1           0        0.118160   -1.767781    1.614741
      9          7           0       -1.633109   -1.585173    0.511194
     10          1           0       -2.341878   -2.144910    0.047079
     11          1           0       -2.105701   -1.007839    1.199367
     12          1           0       -0.696849   -1.181946   -1.458583
     13         17           0       -2.422339    0.446889   -1.055291
     14         35           0        1.936003   -0.396182   -0.511278
     15          6           0       -0.090785    2.761336    0.384681
     16          1           0       -0.994028    2.836668   -0.223366
     17          1           0       -0.146566    3.439900    1.234062
     18          1           0        0.746064    3.035236   -0.262484
 ---------------------------------------------------------------------
                    Distance matrix (angstroms):
                    1          2          3          4          5
     1  C    0.000000
     2  C    1.497795   0.000000
     3  O    2.375536   1.214645   0.000000
     4  C    1.370823   2.544942   3.276070   0.000000
     5  C    3.154174   3.840574   3.679153   2.699044   0.000000
     6  H    4.178394   4.683520   4.324135   3.677658   1.088741
     7  H    3.397085   4.393682   4.406746   2.887965   1.088165
     8  H    2.780491   3.204247   2.853667   2.830484   1.087799
     9  N    2.713043   3.412566   3.556069   1.801404   1.463640
    10  H    3.514258   4.324218   4.543935   2.342147   2.066600
    11  H    2.993028   3.239765   3.212320   2.304149   2.055912
    12  H    2.100081   3.496154   4.225140   1.083354   2.886633
    13  Cl   2.717144   3.270855   4.088707   1.814785   4.043346
    14  Br   1.919086   2.861967   3.375419   2.834331   3.654721
    15  C    2.555124   1.502410   2.372059   3.481226   5.265097
    16  H    2.791175   2.131690   3.099264   3.324365   5.447440
    17  H    3.486364   2.153373   2.530969   4.403120   5.881112
    18  H    2.797379   2.119561   3.055045   3.878018   5.798056
                    6          7          8          9         10
     6  H    0.000000
     7  H    1.778218   0.000000
     8  H    1.780053   1.775989   0.000000
     9  N    2.112696   2.089898   2.078005   0.000000
    10  H    2.435228   2.409633   2.941356   1.015412   0.000000
    11  H    2.417435   2.942825   2.386546   1.015008   1.635995
    12  H    3.869302   2.670537   3.233073   2.217926   2.429082
    13  Cl   4.791988   4.406778   4.299763   2.684406   2.817644
    14  Br   4.683903   3.460115   3.115413   3.898425   4.655113
    15  C    6.103955   5.788097   4.697830   4.613775   5.408572
    16  H    6.278439   5.958588   5.080999   4.527769   5.167781
    17  H    6.609166   6.521987   5.228282   5.289963   6.117060
    18  H    6.725192   6.158394   5.194921   5.254257   6.038636
                   11         12         13         14         15
    11  H    0.000000
    12  H    3.013283   0.000000
    13  Cl   2.701847   2.406878   0.000000
    14  Br   4.431231   2.906325   4.472345   0.000000
    15  C    4.350894   4.394816   3.586967   3.857530   0.000000
    16  H    4.247378   4.214657   2.905722   4.372562   1.091442
    17  H    4.860225   5.377230   4.402090   4.700940   1.088581
    18  H    5.159071   4.614896   4.167356   3.640396   1.092775
                   16         17         18
    16  H    0.000000
    17  H    1.790580   0.000000
    18  H    1.751821   1.788908   0.000000
 Stoichiometry    C5H9BrClNO
 Framework group  C1[X(C5H9BrClNO)]
 Deg. of freedom    48
 Full point group                 C1      NOp   1
 Largest Abelian subgroup         C1      NOp   1
 Largest concise Abelian subgroup C1      NOp   1
                         Standard orientation:                         
 ---------------------------------------------------------------------
[...]
 36963,0.1112862,-0.0051166,0.0857162,0.0034972,-0.0236717,0.0504043,-0
 .0718988,0.0144783,0.0588403,0.0022056,-0.0933923,-0.0681509,-0.020699
 ,-0.0747109,-0.0542184,-0.0287488,0.0867957,-1.2610515,-0.6645171,-0.0
 286342,-0.6568066,-0.8659379,0.3069108,0.5425164,0.6538663,-0.5427849,
 0.1599282,-0.0295372,-0.0460446,-0.0153223,0.1943697,-0.0028791,0.0756
 298,0.1045127,0.1926494,0.1991783,0.0467336,-0.0457651,-0.0240295,0.14
 10122,-0.0209562,0.0146514,0.0128882,0.2090523,-0.0251296,0.0046616,0.
 0195532,0.0204827,-0.0316261,0.0288759,0.0506469,0.1158662,0.0434399,-
 0.7367134,0.241934,-0.4208047,0.2619566,-0.3860253,0.2966476,-0.126029
 5,0.2724208,-0.3537108,-0.5128136,0.2130199,0.0505986,0.2247395,-0.256
 0143,-0.0301619,0.05644,0.0464224,-0.1322376,-0.1579955,0.1893375,0.03
 04887,0.2719778,-0.1828091,-0.0592701,0.1162556,-0.0458824,0.0388205,-
 0.0491663,-0.0466708,0.035514,-0.146048,-0.0293336,0.0226096,0.0337024
 ,-0.0073607,0.1026387,0.0452812,-0.0107852,-0.0603565,0.0139785,0.0179
 52,-0.097545,-0.0127195,-0.1434013,-0.0446713,0.0818869,0.0562456,0.02
 12742,0.0350688,0.0259868,0.0515594,-0.0197014,0.0702747,-0.0184835\Po
 lar=179.9114644,8.2181727,154.7608345,11.8258191,4.7383575,124.8135457
 \Quadrupole=-0.066321,1.4457094,-1.3793884,0.9164029,-5.9038251,-2.955
 5255\PG=C01 [X(C5H9Br1Cl1N1O1)]\NImag=1\\0.49175299,0.05431266,0.38946
 993,0.14649373,0.19894467,0.25114765,-0.06736941,0.02251322,0.01678520
 ,0.76577591,0.02733165,-0.17386825,-0.05712194,0.03993174,0.45794666,0
 .01275880,-0.07182068,-0.10148306,0.14531842,0.16663414,0.36725404,-0.
 03807049,-0.05064926,-0.05230414,-0.52009506,-0.10018097,-0.16316879,0
 .60302555,-0.05097109,-0.02228209,-0.04175878,-0.12182915,-0.12242804,
 -0.06033525,0.14549818,0.12806454,-0.04749994,-0.03992354,-0.01989625,
 -0.17776184,-0.05415224,-0.14969236,0.22023881,0.09932292,0.14469675,-
 0.24007198,-0.03231816,-0.07725357,-0.02115478,-0.06544147,-0.04103375
 ,0.03410398,0.02155065,0.01990871,0.37433076,-0.07710221,-0.09949971,-
 0.05991024,-0.03412279,-0.02568785,-0.01788690,0.01251559,0.00267208,0
 .00110898,-0.04822500,0.42375266,-0.13526005,-0.08251590,-0.14296644,-
 0.01541884,0.00319331,-0.01166886,0.00069251,-0.00609292,0.00268501,0.
 16868797,0.26409694,0.35328197,-0.00517808,-0.00787663,-0.00195822,0.0
 0196194,0.00527747,0.00418128,-0.00280382,-0.00145592,-0.00203391,0.01
 854761,0.01081655,-0.00381006,0.56487929,0.00098988,0.00223472,0.00189
 316,-0.00059603,-0.00170779,-0.00070956,0.00093593,0.00060645,0.000468
 67,0.00002726,-0.00509559,0.00651812,0.01367838,0.59131424,-0.00399591
 ,-0.00576643,-0.00140049,0.00117080,0.00267597,0.00295225,-0.00167455,
 -0.00070223,-0.00130385,0.00328035,0.00971422,-0.01111730,-0.04740511,
 0.03828663,0.54501831,0.00135095,0.00157553,0.00174620,-0.00035313,-0.
 00107810,-0.00077485,0.00064804,0.00034339,0.00038341,-0.00484136,-0.0
 0329004,0.00100853,-0.14940680,-0.05849393,0.12128904,0.15571925,0.000
 00143,-0.00048150,-0.00101923,0.00028658,0.00097009,0.00023547,-0.0004
 5193,-0.00036911,-0.00022628,0.00272907,0.00228138,-0.00066854,-0.0553
 0001,-0.08232282,0.06636423,0.05958058,0.08458722,0.00150400,0.0016083
 1,0.00185335,-0.00057278,-0.00148610,-0.00104792,0.00083316,0.00048556
 ,0.00052719,-0.00633965,-0.00490985,0.00327433,0.11726003,0.06657006,-
 0.18466719,-0.12297666,-0.07890028,0.20512173,0.00060162,0.00075323,0.
 00055174,-0.00021986,-0.00060107,-0.00040707,0.00035734,0.00022979,0.0
 0022416,-0.00142533,-0.00123255,0.00060651,-0.13284224,0.11021470,0.05
 708694,-0.00905209,0.01378951,0.00667190,0.14397208,-0.00023500,-0.000
 67930,0.00002479,0.00010095,0.00028936,0.00005293,-0.00012385,-0.00000
 361,-0.00004017,0.00094657,0.00063541,-0.00058332,0.11258772,-0.199301
 26,-0.07685854,-0.00739721,0.01055789,0.00427757,-0.12738010,0.2129102
 7,0.00020042,0.00000476,0.00021897,-0.00003191,-0.00000396,-0.00004876
 ,0.00005205,0.00001081,0.00001368,-0.00070571,-0.00029144,0.00067068,0
 .06432291,-0.08609732,-0.09563715,0.01050229,-0.01751441,-0.00730547,-
 0.05937995,0.08194766,0.09938586,0.00109140,0.00162927,0.00054156,-0.0
 0037004,-0.00151007,-0.00096648,0.00053817,0.00034858,0.00042500,-0.00
 174013,-0.00208727,0.00190136,-0.14102713,-0.11052021,-0.05785391,-0.0
 1014871,-0.01373755,-0.00720690,0.01281316,0.01295772,0.00732617,0.155
 24642,0.00043120,0.00115264,-0.00078802,-0.00061832,-0.00118562,-0.000
 42147,0.00035882,0.00009187,0.00025803,0.00036175,-0.00017065,0.000925
 97,-0.11416989,-0.19006718,-0.07390890,-0.00459039,-0.00731452,-0.0042
 2997,-0.01428705,-0.01440222,-0.00669588,0.12160141,0.19741150,0.00065
 481,-0.00066460,0.00163556,0.00061336,0.00132997,0.00032009,-0.0005074
 5,-0.00037508,-0.00025221,-0.00293638,-0.00190114,0.00054930,-0.055997
 12,-0.06692839,-0.08227639,0.01341403,0.01656500,0.01031506,-0.0071068
 7,-0.00812953,-0.00428202,0.07183314,0.07519809,0.09394991,-0.02763064
 ,-0.03506029,-0.01196558,0.00732078,0.02170280,0.01529440,-0.01080276,
 -0.00649411,-0.00726432,0.00931331,0.03661486,-0.02036149,-0.13237266,
 0.04957844,-0.07427089,0.01373020,-0.00656133,0.00999983,-0.01305079,0
 .00861297,-0.02010529,-0.01317389,0.00953700,-0.01794768,0.53326106,-0
 .02254217,-0.02145863,-0.00394456,0.00511166,0.01431442,0.01198194,-0.
 00736174,-0.00394905,-0.00549554,0.03410554,0.00554541,-0.03484338,0.0
 2262109,-0.11842030,0.02874096,0.01273769,-0.00688316,0.01545597,0.017
 16836,-0.01165794,0.02597100,-0.01086853,0.01509616,-0.01788461,-0.115
 59439,0.58110739,0.01030677,0.01632220,0.01574589,-0.00455175,-0.01367
 713,-0.00733557,0.00527536,0.00371569,0.00327786,-0.03425173,-0.038732
 78,-0.01064050,-0.04469670,0.03383153,-0.16411600,-0.02360967,0.013760
 72,-0.02690003,0.00501201,-0.00331526,0.00975485,-0.01518708,0.0064745
 3,-0.01738756,0.12584488,0.20777090,0.47783314,-0.00212071,-0.00146675
 ,0.00028663,0.00033409,0.00103213,0.00090532,-0.00064048,-0.00035881,-
 0.00043750,-0.00114897,-0.00262380,-0.00496221,-0.00899555,-0.01469533
 ,-0.00703496,0.00064643,0.00006848,0.00035812,0.00003554,-0.00037136,0
 .00027027,-0.00224281,0.00115313,-0.00296373,-0.13608153,-0.12291956,-
 0.11869292,0.13698619,-0.00103303,-0.00025546,0.00057892,0.00025044,0.
 00019349,0.00033439,-0.00027498,-0.00004570,-0.00016816,-0.00121124,-0
 .00263617,-0.00324488,0.01061454,0.01393153,0.01351285,0.00003064,-0.0
 0004499,0.00025456,0.00006918,0.00079700,-0.00006046,0.00185926,-0.001
 07598,0.00326822,-0.11476519,-0.24313490,-0.16230763,0.11928507,0.2477
 0509,0.00408466,0.00399226,0.00087956,-0.00102989,-0.00274120,-0.00230
 921,0.00176030,0.00093438,0.00121698,-0.00218764,0.00022539,0.01012390
 ,-0.01383495,-0.01883338,-0.01571594,0.00015113,-0.00020308,-0.0003997
 9,0.00062878,0.00026835,0.00183498,-0.00098476,0.00383112,-0.00269315,
 -0.09455229,-0.13645282,-0.15092488,0.11380590,0.15752818,0.16781886,-
 0.00092048,-0.00133522,-0.00054105,-0.00024086,0.00054517,0.00033412,-
 0.00000359,-0.00015538,-0.00006619,-0.00346848,0.00375173,0.00311758,-
 0.01218794,0.01013837,0.00830023,0.00148022,-0.00055755,-0.00008428,-0
 .00060374,0.00058443,-0.00295074,-0.00029582,0.00017021,0.00013866,-0.
 22866680,0.18473158,0.08478917,0.01353598,-0.01521824,-0.00771824,0.23
 104543,-0.00222930,-0.00386749,-0.00276653,0.00037554,0.00320157,0.001
 64460,-0.00095431,-0.00100720,-0.00072564,0.00057752,0.01032778,0.0013
 5114,0.00932018,-0.00923250,-0.00389269,-0.00048440,0.00007889,-0.0005
 9226,0.00121004,0.00076683,0.00263050,-0.00010770,0.00070213,-0.000058
 13,0.15395964,-0.19814613,-0.08989968,0.02078824,-0.01579901,-0.009319
 38,-0.18160178,0.21577581,0.00069623,0.00196596,0.00127271,-0.00033582
 ,-0.00109650,-0.00046990,0.00055079,0.00033206,0.00028109,0.00309790,-
 0.00662612,-0.00319717,-0.02192023,0.02311301,0.01011613,0.00030460,0.
 00028239,0.00099030,-0.00368438,0.00208241,-0.00417078,-0.00021567,-0.
 00074133,0.00042637,0.08939837,-0.10985659,-0.10376272,0.01696605,-0.0
 1113610,-0.00749100,-0.08490004,0.09974237,0.10685693,0.00307882,-0.02
 213839,-0.01799928,-0.00224856,0.00455295,-0.00180843,-0.00168863,-0.0
 0260630,-0.00094475,-0.04333591,0.03665375,0.02297788,-0.00100067,-0.0
 0017430,0.00012036,0.00032523,-0.00024417,0.00032098,0.00011606,-0.000
 08465,0.00005081,0.00002332,-0.00002396,0.00006714,-0.00620729,0.00113
 409,0.01093518,-0.00055323,0.00007748,0.00081135,-0.00056229,-0.001218
 13,0.00089038,0.06361463,0.00171729,-0.00684351,-0.00872876,-0.0001717
 2,0.00388966,-0.00236428,-0.00087217,-0.00112610,0.00026905,0.03015097
 ,-0.23515162,-0.15504325,-0.00093426,0.00043276,-0.00027844,0.00030223
 ,-0.00043053,0.00017082,0.00020733,-0.00016781,-0.00009289,-0.00003096
 ,-0.00004743,0.00010091,-0.00695967,0.00431334,0.01032843,0.00033993,0
 .00074552,0.00004990,-0.00096041,-0.00136761,0.00163760,-0.03375746,0.
 24685907,0.00524360,-0.00843612,0.00011285,-0.00319508,-0.00325832,0.0
 0251098,0.00086622,0.00053099,-0.00083931,0.01473126,-0.15833392,-0.15
 439058,0.00116566,-0.00022275,-0.00011957,-0.00042140,0.00046928,-0.00
 030097,-0.00022722,0.00017708,-0.00011796,-0.00004549,0.00006136,-0.00
 007705,0.00939774,-0.00181748,-0.01157351,0.00075655,0.00020754,-0.000
 54176,0.00056827,0.00182591,-0.00099056,-0.01921289,0.15298920,0.16207
 333,-0.02632524,0.00945008,-0.01788554,0.00347861,0.00718121,0.0095324
 2,-0.00467705,-0.00270836,-0.00355918,-0.08562529,0.04830445,-0.018077
 28,0.00090794,-0.00019743,-0.00038629,-0.00016601,0.00026429,-0.000209
 54,0.00002248,-0.00006266,0.00011707,-0.00012191,-0.00004798,0.0002275
 2,0.00343717,0.00256468,-0.00010890,0.00021087,0.00038291,-0.00102174,
 0.00044410,0.00008742,-0.00060786,-0.00915022,0.00958764,-0.00980541,0
 .12123647,0.00361631,0.00586245,0.00301021,-0.00022964,-0.00236024,-0.
 00250713,0.00067116,0.00103417,0.00102601,0.04904034,-0.07488944,0.010
 29473,-0.00433983,-0.00173747,0.00137870,0.00095034,-0.00072783,0.0011
 6303,0.00005921,-0.00005387,-0.00006137,0.00005713,0.00017638,-0.00019
 165,0.00738961,-0.01585758,0.01400119,-0.00023474,-0.00072072,0.000753
 65,0.00049661,0.00021835,0.00024274,0.01979590,-0.01148006,0.01463121,
 -0.07427482,0.10259439,-0.01029056,0.01045824,0.00127426,0.00093673,-0
 .00051342,-0.00035887,0.00004602,0.00029760,0.00016526,-0.03636795,0.0
 1206874,-0.03876899,0.00433530,0.00191625,-0.00104299,-0.00103819,0.00
 079770,-0.00119534,-0.00016297,0.00021032,-0.00009901,-0.00009534,-0.0
 0015973,0.00005365,-0.00545299,0.01944932,-0.01355356,0.00053661,0.000
 97790,-0.00141387,-0.00096600,0.00010398,0.00002181,0.00423680,-0.0017
 6422,0.00548227,0.05008903,-0.03882213,0.05740044,-0.09320319,0.050661
 69,0.00719227,-0.01966858,0.00789032,-0.00174958,0.00600871,-0.0043648
 5,-0.00042253,-0.02715074,0.02102222,-0.00126872,-0.00076728,-0.000923
 05,0.00109282,0.00018419,0.00010675,0.00055946,-0.00064449,-0.00010076
 ,0.00036838,-0.00039751,0.00010614,0.00049130,-0.00106701,-0.00190320,
 0.00004016,-0.00006497,-0.00009440,0.00030469,0.00017097,0.00003266,-0
 .00007522,-0.00266341,0.00120272,0.00019579,-0.00345811,0.00064530,-0.
 00157514,0.14079464,0.04705936,-0.05669766,-0.01374392,0.02894550,-0.0
 1555830,-0.00114974,0.00105912,-0.00187076,0.00013548,0.00104665,-0.00
 343796,-0.00185291,-0.00044499,-0.00051470,0.00065512,-0.00026365,0.00
 014892,0.00001424,-0.00029771,0.00017661,0.00023760,0.00004481,-0.0002
 8182,-0.00003538,0.00039812,0.00043471,-0.00044467,0.00002733,0.000017
 85,-0.00002354,-0.00010700,-0.00013120,0.00007136,-0.00157101,0.000342
 84,0.00091693,0.00208364,0.00072920,-0.00015838,-0.07643412,0.07876018
 ,0.00305627,-0.01066722,-0.01577993,0.01084905,-0.01152069,-0.00155318
 ,0.00411441,-0.00046685,-0.00117448,-0.00913279,0.00123627,0.00315546,
 0.00057634,0.00025603,-0.00067394,0.00001048,0.00003866,-0.00028193,0.
 00019639,-0.00013007,-0.00019373,0.00048091,0.00021465,-0.00035082,0.0
 0215530,0.00137197,-0.00059900,0.00020961,0.00016732,-0.00033153,0.000
 02235,0.00017811,-0.00014090,-0.00068732,0.00217869,-0.00080499,-0.004
 61813,0.00078088,-0.00044938,-0.00626785,0.01933958,0.01870530,0.00434
 314,0.00738385,0.00491065,-0.12979306,0.04181103,0.02013854,-0.0590048
 4,0.01909791,-0.00497586,-0.00284872,-0.00072392,-0.00017380,0.0001720
 9,-0.00027629,0.00021173,-0.00004024,0.00005444,-0.00007826,-0.0000523
 5,0.00001944,-0.00002662,0.00003100,-0.00011047,0.00003196,0.00112701,
 0.00035565,-0.00079438,-0.00010380,-0.00001836,-0.00000008,-0.00029266
 ,-0.00012292,-0.00015553,0.00009836,0.00000004,0.00016429,-0.00041628,
 -0.00131385,-0.00145728,0.00275529,-0.00315591,-0.00142356,0.52672782,
 0.01673340,-0.01091097,-0.01166285,0.04695690,-0.12678384,-0.01761021,
 -0.00116810,0.02027755,-0.00426328,0.00294278,0.00119971,-0.00085955,-
 0.00026178,0.00004818,-0.00003698,0.00005651,-0.00003990,0.00009105,0.
 00005820,0.00005045,0.00002303,0.00015839,-0.00007639,-0.00019066,-0.0
 0121167,-0.00054724,0.00125818,0.00003268,0.00012084,0.00001574,-0.000
 09621,-0.00053478,-0.00000278,-0.00022006,-0.00000341,0.00021412,-0.00
 177833,-0.00240907,-0.00296527,0.00126786,-0.00130001,-0.00235374,0.06
 077765,0.52627653,0.01278230,-0.00980370,0.00980058,0.02968662,-0.0272
 6153,-0.09565947,-0.01673348,0.00142606,0.01720675,-0.00372355,-0.0005
 7435,-0.00044482,0.00003052,-0.00012878,0.00000362,-0.00003754,0.00004
 508,-0.00003095,-0.00000484,0.00001970,0.00000652,-0.00003685,-0.00001
 054,0.00013144,0.00095592,0.00039078,-0.00054643,0.00008705,0.00002110
 ,-0.00013699,0.00019038,0.00031431,-0.00020694,0.00028432,0.00041281,-
 0.00033277,-0.00151861,-0.00342752,-0.00499424,0.00099460,-0.00381908,
 0.00044665,0.02930627,0.01169022,0.55973676,0.00110550,0.00169764,-0.0
 0001016,-0.01532839,-0.01986838,0.00110418,-0.00634312,0.00517222,0.00
 029685,-0.00134605,0.00005396,0.00013764,-0.00000141,0.00026817,0.0000
 5795,-0.00004459,-0.00003518,-0.00001128,-0.00001829,-0.00003345,-0.00
 001965,-0.00012546,0.00010011,-0.00002717,0.00029099,0.00019794,-0.000
 00913,0.00008180,0.00005173,-0.00010695,0.00028597,-0.00003518,-0.0000
 1062,-0.00000650,0.00002562,0.00001009,0.00030295,-0.00101731,-0.00190
 265,0.00014545,0.00017009,-0.00026200,-0.22848273,-0.12418530,0.045355
 03,0.24726067,-0.00082898,-0.00147810,-0.00059519,0.01465238,0.0151036
 2,-0.00330945,0.00383949,-0.00266146,0.00132483,0.00140251,0.00036434,
 -0.00146966,-0.00006758,-0.00035724,0.00022796,0.00002834,0.00002731,-
 0.00000368,0.00001741,0.00009277,-0.00001414,0.00022004,-0.00011217,0.
 00000607,-0.00035950,-0.00061928,0.00056710,-0.00009199,0.00022663,-0.
 00010154,-0.00058345,-0.00106897,-0.00012554,-0.00002311,-0.00000314,0
 .00005295,-0.00048277,-0.00117574,-0.00209477,-0.00023495,0.00017622,0
 .00030858,-0.12417751,-0.13041249,0.02414479,0.13525379,0.14145485,-0.
 00053368,-0.00166081,-0.00089084,0.00167669,0.00735283,-0.00282008,0.0
 0033857,-0.00039470,0.00136721,0.00212880,-0.00061334,-0.00056116,-0.0
 0000740,0.00004289,0.00002528,0.00000555,0.00001143,-0.00001442,-0.000
 02651,-0.00000589,-0.00003093,0.00002530,-0.00000939,-0.00002483,-0.00
 050229,-0.00032781,0.00016534,-0.00005872,0.00003910,0.00001436,-0.000
 14900,-0.00034323,0.00045245,-0.00004336,0.00008261,-0.00003287,-0.000
 91763,-0.00036101,-0.00153682,-0.00012076,0.00004672,0.00010994,0.0432
 1543,0.02275200,-0.05472498,-0.04441758,-0.02637053,0.05597507,-0.0026
 7557,0.00114302,-0.00054858,0.00300550,0.01707493,0.02404859,0.0027874
 0,-0.00053286,-0.00058512,-0.00137535,0.00001574,0.00011668,0.00000854
 ,0.00001785,-0.00000992,-0.00000216,-0.00000930,0.00000005,0.00000040,
 -0.00001746,0.00000841,-0.00004151,0.00002290,-0.00000011,0.00029217,0
 .00014962,-0.00019491,0.00004487,-0.00003078,-0.00002422,0.00017776,0.
 00029901,-0.00003851,0.00003696,-0.00001762,0.00000385,0.00005553,-0.0
 0088299,-0.00112799,-0.00065925,0.00144629,0.00032959,-0.06101378,-0.0
 3861100,-0.05194931,-0.00385373,-0.01202613,-0.02102182,0.06510306,0.0
 0265666,0.00025704,0.00047909,-0.00326390,-0.01534138,-0.01793402,-0.0
 0313834,0.00259958,0.00255390,0.00010192,0.00009150,0.00030981,-0.0000
 5801,0.00004481,-0.00005143,-0.00000428,-0.00001501,0.00001596,0.00000
 932,-0.00000559,0.00000479,-0.00000960,0.00005372,-0.00004348,-0.00011
 518,-0.00006228,0.00004758,0.00002822,-0.00002092,0.00002625,0.0001439
 4,0.00015525,0.00000048,-0.00003883,0.00002716,-0.00001635,0.00007573,
 0.00030800,-0.00007862,0.00072932,-0.00093200,-0.00047121,-0.03552951,
 -0.12889839,-0.12289364,-0.00196486,-0.00895061,-0.01310925,0.03582599
 ,0.13800205,0.00059356,-0.00085890,0.00019172,-0.00409515,-0.00330774,
 -0.00692330,-0.00069701,0.00220192,0.00200761,0.00083549,0.00085636,-0
 .00000236,-0.00009791,0.00000680,-0.00001868,0.00001851,-0.00001852,0.
 00002906,0.00000949,0.00000150,-0.00000135,0.00002505,0.00000044,-0.00
 001707,-0.00025776,-0.00024425,0.00022124,-0.00002208,0.00001432,0.000
 04192,-0.00003640,-0.00009049,-0.00000576,-0.00000635,-0.00002190,0.00
 002587,-0.00046684,-0.00047790,-0.00032191,0.00016242,-0.00035685,0.00
 009643,-0.04787106,-0.12381740,-0.22688133,0.00147756,0.00495694,0.007
 09194,0.05483235,0.13515585,0.24149483,0.00024139,-0.00027550,0.001958
 14,-0.00503511,0.01434867,-0.02370712,-0.00333935,-0.00076390,0.004074
 20,-0.00076257,-0.00034127,0.00008579,0.00010616,0.00002760,0.00002133
 ,-0.00002940,0.00001590,-0.00002819,-0.00000950,-0.00000330,0.00000110
 ,-0.00005856,0.00000538,0.00001458,0.00028067,0.00031168,-0.00010637,0
 .00007628,0.00002495,-0.00008607,0.00010225,0.00010345,0.00003955,0.00
 012333,0.00017049,-0.00019584,-0.00015600,-0.00042872,0.00025658,-0.00
 031473,-0.00000651,0.00039093,-0.05320625,0.03854808,-0.04566884,0.006
 07694,-0.01653798,0.02040841,-0.00189083,0.00455142,-0.00440387,0.0577
 9527,0.00009193,-0.00065411,-0.00289082,0.00170666,-0.01098753,0.01516
 523,0.00029738,0.00039688,-0.00147301,0.00221233,-0.00030128,0.0004842
 8,-0.00000702,0.00014417,-0.00006100,-0.00000325,-0.00002232,0.0000150
 0,0.00001217,-0.00000497,0.00000171,-0.00000471,0.00004959,-0.00006559
 ,-0.00067212,-0.00007494,0.00029910,0.00000715,-0.00000410,0.00004973,
 0.00005318,-0.00007172,0.00011458,-0.00011379,0.00001086,0.00000836,-0
 .00042970,0.00048908,0.00027651,0.00039035,-0.00006214,-0.00046097,0.0
 3592871,-0.14605677,0.12945430,0.00414838,-0.01060654,0.01286839,-0.00
 386721,0.01268708,-0.01400021,-0.03975046,0.15506877,-0.00079501,-0.00
 117849,-0.00171609,-0.00004382,-0.00504546,0.00833319,0.00031722,0.000
 86779,-0.00028691,0.00126224,0.00047319,0.00001757,-0.00011044,0.00001
 703,-0.00002610,0.00002452,-0.00001962,0.00003302,0.00001189,0.0000004
 8,0.00000163,0.00003398,0.00000105,-0.00002029,-0.00036585,-0.00026580
 ,0.00034144,-0.00001000,0.00001283,0.00002755,-0.00004879,-0.00010290,
 0.00001796,0.00000720,0.00007372,-0.00008340,-0.00078310,-0.00143364,-
 0.00066271,0.00007790,0.00016744,-0.00017997,-0.04102246,0.12771839,-0
 .20337340,-0.00166212,0.00249529,-0.00456466,-0.00383902,0.01600428,-0
 .01702885,0.04694568,-0.13978558,0.21917002\\-0.00000377,-0.00000643,-
 0.00000404,0.00000582,0.00000059,-0.00000075,-0.00000090,-0.00000268,-
 0.00000754,0.00000120,-0.00000014,0.00000165,-0.00000024,0.00000039,0.
 00000118,0.00000035,0.00000213,0.00000262,-0.00000237,-0.00000016,0.00
 000102,0.00000073,-0.00000033,0.00000062,-0.00000283,0.00000263,0.0000
 0293,-0.00000373,0.00000157,0.00000374,-0.00000097,0.00000213,0.000003
 80,-0.00000430,-0.00000080,-0.00000041,-0.00000383,0.00000201,0.000002
 14,-0.00000219,-0.00000292,-0.00000448,0.00000435,0.00000037,-0.000000
 10,0.00000358,0.00000192,0.00000058,0.00000564,0.00000009,-0.00000139,
 0.00000345,-0.00000035,-0.00000157\\\@


      SCIENCE SANS CONSCIENCE N'EST QUE RUINE DE L'AME.

                                                  -- RABELAIS
 Job cpu time:       0 days  2 hours 48 minutes 12.9 seconds.
 Elapsed time:       0 days  0 hours 10 minutes 32.2 seconds.
 File lengths (MBytes):  RWF=    303 Int=      0 D2E=      0 Chk=     20 Scr=      1
 Normal termination of Gaussian 16 at Fri Feb 12 14:13:40 2021.
