 Entering Gaussian System, Link 0=g16
 Initial command:
 /apps/gaussian/16/A.03/g16/l1.exe "/beegfs/scratch/user/q/tla25/Gau-69143.inp" -scrdir="/beegfs/scratch/user/q/tla25/"
 Entering Link 1 = /apps/gaussian/16/A.03/g16/l1.exe PID=     69144.
  
 Copyright (c) 1988,1990,1992,1993,1995,1998,2003,2009,2016,
            Gaussian, Inc.  All Rights Reserved.
  
 This is part of the Gaussian(R) 16 program.  It is based on
 the Gaussian(R) 09 system (copyright 2009, Gaussian, Inc.),
 the Gaussian(R) 03 system (copyright 2003, Gaussian, Inc.),
 the Gaussian(R) 98 system (copyright 1998, Gaussian, Inc.),
 the Gaussian(R) 94 system (copyright 1995, Gaussian, Inc.),
 the Gaussian 92(TM) system (copyright 1992, Gaussian, Inc.),
 the Gaussian 90(TM) system (copyright 1990, Gaussian, Inc.),
 the Gaussian 88(TM) system (copyright 1988, Gaussian, Inc.),
 the Gaussian 86(TM) system (copyright 1986, Carnegie Mellon
 University), and the Gaussian 82(TM) system (copyright 1983,
 Carnegie Mellon University). Gaussian is a federally registered
 trademark of Gaussian, Inc.
  
 This software contains proprietary and confidential information,
 including trade secrets, belonging to Gaussian, Inc.
  
 This software is provided under written license and may be
 used, copied, transmitted, or stored only in accord with that
 written license.
  
 The following legend is applicable only to US Government
 contracts under FAR:
  
                    RESTRICTED RIGHTS LEGEND
  
 Use, reproduction and disclosure by the US Government is
 subject to restrictions as set forth in subparagraphs (a)
 and (c) of the Commercial Computer Software - Restricted
 Rights clause in FAR 52.227-19.
  
 Gaussian, Inc.
 340 Quinnipiac St., Bldg. 40, Wallingford CT 06492
  
  
 ---------------------------------------------------------------
 Warning -- This program may not be used in any manner that
 competes with the business of Gaussian, Inc. or will provide
 assistance to any competitor of Gaussian, Inc.  The licensee
 of this program is prohibited from giving any competitor of
 Gaussian, Inc. access to this program.  By using this program,
 the user acknowledges that Gaussian, Inc. is engaged in the
 business of creating and licensing software in the field of
 computational chemistry and represents and warrants to the
 licensee that it is not a competitor of Gaussian, Inc. and that
 it will not use this program in any manner prohibited above.
 ---------------------------------------------------------------
  

 Cite this work as:
 Gaussian 16, Revision A.03,
 M. J. Frisch, G. W. Trucks, H. B. Schlegel, G. E. Scuseria, 
 M. A. Robb, J. R. Cheeseman, G. Scalmani, V. Barone, 
 G. A. Petersson, H. Nakatsuji, X. Li, M. Caricato, A. V. Marenich, 
 J. Bloino, B. G. Janesko, R. Gomperts, B. Mennucci, H. P. Hratchian, 
 J. V. Ortiz, A. F. Izmaylov, J. L. Sonnenberg, D. Williams-Young, 
 F. Ding, F. Lipparini, F. Egidi, J. Goings, B. Peng, A. Petrone, 
 T. Henderson, D. Ranasinghe, V. G. Zakrzewski, J. Gao, N. Rega, 
 G. Zheng, W. Liang, M. Hada, M. Ehara, K. Toyota, R. Fukuda, 
 J. Hasegawa, M. Ishida, T. Nakajima, Y. Honda, O. Kitao, H. Nakai, 
 T. Vreven, K. Throssell, J. A. Montgomery, Jr., J. E. Peralta, 
 F. Ogliaro, M. J. Bearpark, J. J. Heyd, E. N. Brothers, K. N. Kudin, 
 V. N. Staroverov, T. A. Keith, R. Kobayashi, J. Normand, 
 K. Raghavachari, A. P. Rendell, J. C. Burant, S. S. Iyengar, 
 J. Tomasi, M. Cossi, J. M. Millam, M. Klene, C. Adamo, R. Cammi, 
 J. W. Ochterski, R. L. Martin, K. Morokuma, O. Farkas, 
 J. B. Foresman, and D. J. Fox, Gaussian, Inc., Wallingford CT, 2016.
 
 ******************************************
 Gaussian 16:  ES64L-G16RevA.03 25-Dec-2016
                12-Feb-2021 
 ******************************************
 %nprocshared=16
 Will use up to   16 processors via shared memory.
 %mem=48GB
 ----------------------------------------------------------------------
 # wB97XD def2tzvp, opt=(ts, noeigen, calcfc, maxcycles=70, maxstep=8),
  freq=noraman, scrf=(iefpcm, solvent=water)
 ----------------------------------------------------------------------
 1/5=1,6=70,8=8,10=4,11=1,18=20,26=3,38=1/1,3;
 2/9=110,12=2,17=6,18=5,40=1/2;
 3/5=44,7=101,11=2,25=1,30=1,70=2201,71=2,72=1,74=-58,140=1/1,2,3;
 4//1;
 5/5=2,38=5,53=1/2;
 8/6=4,10=90,11=11/1;
 11/6=1,8=1,9=11,15=111,16=1/1,2,10;
 10/6=1,13=1/2;
 6/7=2,8=2,9=2,10=2,28=1/1;
 7/10=1,18=20,25=1/1,2,3,16;
 1/5=1,6=70,8=8,10=4,11=1,18=20,26=3/3(2);
 2/9=110/2;
 99//99;
 2/9=110/2;
 3/5=44,7=101,11=2,25=1,30=1,70=2205,71=1,72=1,74=-58/1,2,3;
 4/5=5,16=3,69=1/1;
 5/5=2,38=5,53=1/2;
 7//1,2,3,16;
 1/5=1,6=70,8=8,11=1,18=20,26=3/3(-5);
 2/9=110/2;
 6/7=2,8=2,9=2,10=2,19=2,28=1/1;
 99/9=1/99;
 ------------------------
 0_iteration/TS-347-0.out
 ------------------------
 Symbolic Z-matrix:
 Charge =  0 Multiplicity = 1
 C                    -0.63659  -0.25007   0.00833 
 C                    -0.74912  -1.4444    0.80468 
 O                     0.23031  -1.88699   1.42218 
 C                     0.55105   0.43622  -0.18477 
 C                     1.30959   2.65578   1.30963 
 H                     1.64023   3.08056   2.25669 
 H                     2.01972   2.9216    0.52872 
 H                     0.32925   3.05619   1.05877 
 N                     1.21949   1.19788   1.39238 
 H                     2.1132    0.7719    1.61082 
 H                     0.54701   0.89268   2.08735 
 H                     0.49361   1.34509  -0.76672 
 Br                    2.16346  -0.50963  -0.77706 
 Br                   -2.21888   0.66454  -0.58174 
 N                    -1.94451  -2.09282   0.85932 
 H                    -2.77959  -1.68989   0.47574 
 H                    -2.0408   -2.82488   1.53976 
 
 Add virtual bond connecting atoms N9         and C4         Dist= 3.54D+00.

 GradGradGradGradGradGradGradGradGradGradGradGradGradGradGradGradGradGrad
 Berny optimization.
 Initialization pass.
                           ----------------------------
                           !    Initial Parameters    !
                           ! (Angstroms and Degrees)  !
 --------------------------                            --------------------------
 ! Name  Definition              Value          Derivative Info.                !
 --------------------------------------------------------------------------------
 ! R1    R(1,2)                  1.4399         calculate D2E/DX2 analytically  !
 ! R2    R(1,4)                  1.3852         calculate D2E/DX2 analytically  !
 ! R3    R(1,14)                 1.9205         calculate D2E/DX2 analytically  !
 ! R4    R(2,3)                  1.2395         calculate D2E/DX2 analytically  !
 ! R5    R(2,15)                 1.361          calculate D2E/DX2 analytically  !
 ! R6    R(4,9)                  1.8747         calculate D2E/DX2 analytically  !
 ! R7    R(4,12)                 1.0807         calculate D2E/DX2 analytically  !
 ! R8    R(4,13)                 1.9609         calculate D2E/DX2 analytically  !
 ! R9    R(5,6)                  1.0894         calculate D2E/DX2 analytically  !
 ! R10   R(5,7)                  1.0885         calculate D2E/DX2 analytically  !
 ! R11   R(5,8)                  1.0883         calculate D2E/DX2 analytically  !
 ! R12   R(5,9)                  1.463          calculate D2E/DX2 analytically  !
 ! R13   R(9,10)                 1.0139         calculate D2E/DX2 analytically  !
 ! R14   R(9,11)                 1.0141         calculate D2E/DX2 analytically  !
 ! R15   R(15,16)                1.0034         calculate D2E/DX2 analytically  !
 ! R16   R(15,17)                1.0041         calculate D2E/DX2 analytically  !
 ! A1    A(2,1,4)              123.7148         calculate D2E/DX2 analytically  !
 ! A2    A(2,1,14)             120.0369         calculate D2E/DX2 analytically  !
 ! A3    A(4,1,14)             115.316          calculate D2E/DX2 analytically  !
 ! A4    A(1,2,3)              120.6594         calculate D2E/DX2 analytically  !
 ! A5    A(1,2,15)             119.0792         calculate D2E/DX2 analytically  !
 ! A6    A(3,2,15)             120.2572         calculate D2E/DX2 analytically  !
 ! A7    A(1,4,9)              112.9377         calculate D2E/DX2 analytically  !
 ! A8    A(1,4,12)             116.4969         calculate D2E/DX2 analytically  !
 ! A9    A(1,4,13)             120.5387         calculate D2E/DX2 analytically  !
 ! A10   A(9,4,12)              97.4863         calculate D2E/DX2 analytically  !
 ! A11   A(9,4,13)              99.0265         calculate D2E/DX2 analytically  !
 ! A12   A(12,4,13)            106.6602         calculate D2E/DX2 analytically  !
 ! A13   A(6,5,7)              109.2978         calculate D2E/DX2 analytically  !
 ! A14   A(6,5,8)              109.2901         calculate D2E/DX2 analytically  !
 ! A15   A(6,5,9)              110.9831         calculate D2E/DX2 analytically  !
 ! A16   A(7,5,8)              109.4191         calculate D2E/DX2 analytically  !
 ! A17   A(7,5,9)              108.9121         calculate D2E/DX2 analytically  !
 ! A18   A(8,5,9)              108.9175         calculate D2E/DX2 analytically  !
 ! A19   A(4,9,5)              112.2869         calculate D2E/DX2 analytically  !
 ! A20   A(4,9,10)             108.9576         calculate D2E/DX2 analytically  !
 ! A21   A(4,9,11)             102.5814         calculate D2E/DX2 analytically  !
 ! A22   A(5,9,10)             112.1225         calculate D2E/DX2 analytically  !
 ! A23   A(5,9,11)             112.3033         calculate D2E/DX2 analytically  !
 ! A24   A(10,9,11)            108.0865         calculate D2E/DX2 analytically  !
 ! A25   A(2,15,16)            121.6209         calculate D2E/DX2 analytically  !
 ! A26   A(2,15,17)            117.3086         calculate D2E/DX2 analytically  !
 ! A27   A(16,15,17)           118.1652         calculate D2E/DX2 analytically  !
 ! D1    D(4,1,2,3)              3.5591         calculate D2E/DX2 analytically  !
 ! D2    D(4,1,2,15)          -175.6913         calculate D2E/DX2 analytically  !
 ! D3    D(14,1,2,3)          -164.8633         calculate D2E/DX2 analytically  !
 ! D4    D(14,1,2,15)           15.8863         calculate D2E/DX2 analytically  !
 ! D5    D(2,1,4,9)            -65.576          calculate D2E/DX2 analytically  !
 ! D6    D(2,1,4,12)          -177.2328         calculate D2E/DX2 analytically  !
 ! D7    D(2,1,4,13)            51.0051         calculate D2E/DX2 analytically  !
 ! D8    D(14,1,4,9)           103.3427         calculate D2E/DX2 analytically  !
 ! D9    D(14,1,4,12)           -8.3141         calculate D2E/DX2 analytically  !
 ! D10   D(14,1,4,13)         -140.0762         calculate D2E/DX2 analytically  !
 ! D11   D(1,2,15,16)           -9.3662         calculate D2E/DX2 analytically  !
 ! D12   D(1,2,15,17)         -169.7134         calculate D2E/DX2 analytically  !
 ! D13   D(3,2,15,16)          171.3803         calculate D2E/DX2 analytically  !
 ! D14   D(3,2,15,17)           11.0331         calculate D2E/DX2 analytically  !
 ! D15   D(1,4,9,5)           -118.4994         calculate D2E/DX2 analytically  !
 ! D16   D(1,4,9,10)           116.6721         calculate D2E/DX2 analytically  !
 ! D17   D(1,4,9,11)             2.2789         calculate D2E/DX2 analytically  !
 ! D18   D(12,4,9,5)             4.4728         calculate D2E/DX2 analytically  !
 ! D19   D(12,4,9,10)         -120.3557         calculate D2E/DX2 analytically  !
 ! D20   D(12,4,9,11)          125.251          calculate D2E/DX2 analytically  !
 ! D21   D(13,4,9,5)           112.7528         calculate D2E/DX2 analytically  !
 ! D22   D(13,4,9,10)          -12.0757         calculate D2E/DX2 analytically  !
 ! D23   D(13,4,9,11)         -126.469          calculate D2E/DX2 analytically  !
 ! D24   D(6,5,9,4)            176.4305         calculate D2E/DX2 analytically  !
 ! D25   D(6,5,9,10)           -60.5029         calculate D2E/DX2 analytically  !
 ! D26   D(6,5,9,11)            61.4333         calculate D2E/DX2 analytically  !
 ! D27   D(7,5,9,4)            -63.2017         calculate D2E/DX2 analytically  !
 ! D28   D(7,5,9,10)            59.8649         calculate D2E/DX2 analytically  !
 ! D29   D(7,5,9,11)          -178.1989         calculate D2E/DX2 analytically  !
 ! D30   D(8,5,9,4)             56.0688         calculate D2E/DX2 analytically  !
 ! D31   D(8,5,9,10)           179.1354         calculate D2E/DX2 analytically  !
 ! D32   D(8,5,9,11)           -58.9284         calculate D2E/DX2 analytically  !
 --------------------------------------------------------------------------------
 Trust Radius=8.00D-02 FncErr=1.00D-07 GrdErr=1.00D-06 EigMax=2.50D+02 EigMin=1.00D-04
 Number of steps in this run=     70 maximum allowed number of steps=    102.
 Search for a saddle point of order  1.
 GradGradGradGradGradGradGradGradGradGradGradGradGradGradGradGradGradGrad

                          Input orientation:                          
 ---------------------------------------------------------------------
 Center     Atomic      Atomic             Coordinates (Angstroms)
 Number     Number       Type             X           Y           Z
 ---------------------------------------------------------------------
      1          6           0       -0.636590   -0.250070    0.008330
      2          6           0       -0.749120   -1.444400    0.804680
      3          8           0        0.230310   -1.886990    1.422180
      4          6           0        0.551050    0.436220   -0.184770
      5          6           0        1.309590    2.655780    1.309630
      6          1           0        1.640230    3.080560    2.256690
      7          1           0        2.019720    2.921600    0.528720
      8          1           0        0.329250    3.056190    1.058770
      9          7           0        1.219490    1.197880    1.392380
     10          1           0        2.113200    0.771900    1.610820
     11          1           0        0.547010    0.892680    2.087350
     12          1           0        0.493610    1.345090   -0.766720
     13         35           0        2.163460   -0.509630   -0.777060
     14         35           0       -2.218880    0.664540   -0.581740
     15          7           0       -1.944510   -2.092820    0.859320
     16          1           0       -2.779590   -1.689890    0.475740
     17          1           0       -2.040800   -2.824880    1.539760
 ---------------------------------------------------------------------
                    Distance matrix (angstroms):
                    1          2          3          4          5
     1  C    0.000000
     2  C    1.439882   0.000000
     3  O    2.330235   1.239546   0.000000
     4  C    1.385197   2.491222   2.842968   0.000000
     5  C    3.731617   4.615706   4.670575   2.781198   0.000000
     6  H    4.618672   5.319078   5.230758   3.760262   1.089350
     7  H    4.169686   5.177314   5.207955   2.973747   1.088469
     8  H    3.601059   4.634949   4.957508   2.908579   1.088267
     9  N    2.730785   3.347008   3.239720   1.874657   1.463024
    10  H    3.342715   3.708736   3.263519   2.403568   2.070147
    11  H    2.651247   2.964311   2.875642   2.317521   2.072414
    12  H    2.102995   3.434375   3.912410   1.080745   2.587462
    13  Br   2.919673   3.443664   3.235869   1.960945   3.886282
    14  Br   1.920504   2.920613   4.065038   2.807530   4.471288
    15  N    2.414657   1.361026   2.255886   3.703240   5.774179
    16  H    2.623738   2.071539   3.161344   4.006218   6.025082
    17  H    3.308584   2.028424   2.459960   4.508488   6.427730
                    6          7          8          9         10
     6  H    0.000000
     7  H    1.776277   0.000000
     8  H    1.776028   1.776726   0.000000
     9  N    2.113892   2.087460   2.087376   0.000000
    10  H    2.443514   2.408503   2.950461   1.013850   0.000000
    11  H    2.451658   2.952070   2.405446   1.014081   1.641530
    12  H    3.669823   2.548050   2.507447   2.282605   2.933311
    13  Br   4.729363   3.674107   4.410178   2.917729   2.710501
    14  Br   5.365312   4.928810   3.860600   4.000499   4.856518
    15  N    6.447237   6.400689   5.632235   4.596059   5.023583
    16  H    6.742684   6.655977   5.703515   5.017179   5.593587
    17  H    6.995584   7.108590   6.358889   5.180136   5.495234
                   11         12         13         14         15
    11  H    0.000000
    12  H    2.890198   0.000000
    13  Br   3.575504   2.495695   0.000000
    14  Br   3.850485   2.802672   4.541115   0.000000
    15  N    4.077860   4.517484   4.696770   3.123294   0.000000
    16  H    4.509237   4.633427   5.234144   2.641212   1.003417
    17  H    4.562551   5.397382   5.329525   4.087606   1.004083
                   16         17
    16  H    0.000000
    17  H    1.722252   0.000000
 Stoichiometry    C4H8Br2N2O
 Framework group  C1[X(C4H8Br2N2O)]
 Deg. of freedom    45
 Full point group                 C1      NOp   1
 Largest Abelian subgroup         C1      NOp   1
 Largest concise Abelian subgroup C1      NOp   1
                         Standard orientation:                         
 ---------------------------------------------------------------------
 Center     Atomic      Atomic             Coordinates (Angstroms)
 Number     Number       Type             X           Y           Z
 ---------------------------------------------------------------------
      1          6           0       -0.636589   -0.250068    0.008333
      2          6           0       -0.749119   -1.444398    0.804683
      3          8           0        0.230311   -1.886988    1.422183
      4          6           0        0.551051    0.436222   -0.184767
      5          6           0        1.309592    2.655782    1.309633
      6          1           0        1.640232    3.080562    2.256693
      7          1           0        2.019722    2.921601    0.528723
      8          1           0        0.329252    3.056192    1.058773
      9          7           0        1.219491    1.197882    1.392383
     10          1           0        2.113201    0.771901    1.610823
     11          1           0        0.547011    0.892682    2.087353
     12          1           0        0.493611    1.345092   -0.766718
     13         35           0        2.163461   -0.509629   -0.777058
     14         35           0       -2.218879    0.664542   -0.581738
     15          7           0       -1.944509   -2.092818    0.859323
     16          1           0       -2.779589   -1.689888    0.475743
     17          1           0       -2.040799   -2.824878    1.539763
 ---------------------------------------------------------------------
 Rotational constants (GHZ):           0.9503805           0.4662378           0.4072333
 Standard basis: def2TZVP (5D, 7F)
 There are   410 symmetry adapted cartesian basis functions of A   symmetry.
 There are   361 symmetry adapted basis functions of A   symmetry.
   361 basis functions,   649 primitive gaussians,   410 cartesian basis functions
    62 alpha electrons       62 beta electrons
       nuclear repulsion energy      1048.6174921236 Hartrees.
 NAtoms=   17 NActive=   17 NUniq=   17 SFac= 1.00D+00 NAtFMM=   60 NAOKFM=F Big=F
 Integral buffers will be    131072 words long.
 Raffenetti 2 integral format.
 Two-electron integral symmetry is turned on.
 Nuclear repulsion after empirical dispersion term =     1048.6067932498 Hartrees.
 Force inversion solution in PCM.
 ------------------------------------------------------------------------------
 Polarizable Continuum Model (PCM)
 =================================
 Model                : PCM.
 Atomic radii         : UFF (Universal Force Field).
 Polarization charges : Total charges.
 Charge compensation  : None.
 Solution method      : Matrix inversion.
 Cavity type          : Scaled VdW (van der Waals Surface) (Alpha=1.100).
 Cavity algorithm     : GePol (No added spheres)
                        Default sphere list used, NSphG=   17.
                        Lebedev-Laikov grids with approx.  5.0 points / Ang**2.
                        Smoothing algorithm: York/Karplus (Gamma=1.0000).
                        Polarization charges: spherical gaussians, with
                                              point-specific exponents (IZeta= 3).
                        Self-potential: point-specific (ISelfS= 7).
                        Self-field    : sphere-specific E.n sum rule (ISelfD= 2).
 1st derivatives      : Analytical E(r).r(x)/FMM algorithm (CHGder, D1EAlg=3).
                        Cavity 1st derivative terms included.
 2nd derivatives      : Analytical E(r).r(xy)/FMM algorithm (CHGder, D2EAlg=3).
                        Cavity 2nd derivative terms included.
 Solvent              : Water, Eps=  78.355300 Eps(inf)=   1.777849
 ------------------------------------------------------------------------------
 Spheres list:
 ISph  on   Nord     Re0    Alpha      Xe            Ye            Ze
    1   C      1    1.9255  1.100     -0.636589     -0.250068      0.008333
    2   C      2    1.9255  1.100     -0.749119     -1.444398      0.804683
    3   O      3    1.7500  1.100      0.230311     -1.886988      1.422183
    4   C      4    1.9255  1.100      0.551051      0.436222     -0.184767
    5   C      5    1.9255  1.100      1.309592      2.655782      1.309633
    6   H      6    1.4430  1.100      1.640232      3.080562      2.256693
    7   H      7    1.4430  1.100      2.019722      2.921601      0.528723
    8   H      8    1.4430  1.100      0.329252      3.056192      1.058773
    9   N      9    1.8300  1.100      1.219491      1.197882      1.392383
   10   H     10    1.4430  1.100      2.113201      0.771901      1.610823
   11   H     11    1.4430  1.100      0.547011      0.892682      2.087353
   12   H     12    1.4430  1.100      0.493611      1.345092     -0.766718
   13  Br     13    2.0945  1.100      2.163461     -0.509629     -0.777058
   14  Br     14    2.0945  1.100     -2.218879      0.664542     -0.581738
   15   N     15    1.8300  1.100     -1.944509     -2.092818      0.859323
   16   H     16    1.4430  1.100     -2.779589     -1.689888      0.475743
   17   H     17    1.4430  1.100     -2.040799     -2.824878      1.539763
 ------------------------------------------------------------------------------
 One-electron integrals computed using PRISM.
   1 Symmetry operations used in ECPInt.
 ECPInt:  NShTT=   10011 NPrTT=   35821 LenC2=    9494 LenP2D=   24769.
 LDataN:  DoStor=T MaxTD1= 6 Len=  172
 NBasis=   361 RedAO= T EigKep=  1.08D-04  NBF=   361
 NBsUse=   361 1.00D-06 EigRej= -1.00D+00 NBFU=   361
 ExpMin= 9.52D-02 ExpMax= 5.65D+05 ExpMxC= 5.46D+03 IAcc=3 IRadAn=         5 AccDes= 0.00D+00
 Harris functional with IExCor= 4639 and IRadAn=       5 diagonalized for initial guess.
 HarFok:  IExCor= 4639 AccDes= 0.00D+00 IRadAn=         5 IDoV= 1 UseB2=F ITyADJ=14
 ICtDFT=  3500011 ScaDFX=  1.000000  1.000000  1.000000  1.000000
 FoFCou: FMM=F IPFlag=           0 FMFlag=      100000 FMFlg1=           0
         NFxFlg=           0 DoJE=T BraDBF=F KetDBF=T FulRan=T
         wScrn=  0.000000 ICntrl=       500 IOpCl=  0 I1Cent=   200000004 NGrid=           0
         NMat0=    1 NMatS0=      1 NMatT0=    0 NMatD0=    1 NMtDS0=    0 NMtDT0=    0
 Petite list used in FoFCou.
 Requested convergence on RMS density matrix=1.00D-08 within 128 cycles.
 Requested convergence on MAX density matrix=1.00D-06.
 Requested convergence on             energy=1.00D-06.
 No special actions if energy rises.
 Inv3:  Mode=1 IEnd=     8517675.
 Iteration    1 A*A^-1 deviation from unit magnitude is 4.88D-15 for   1670.
 Iteration    1 A*A^-1 deviation from orthogonality  is 3.77D-15 for   1036    658.
 Iteration    1 A^-1*A deviation from unit magnitude is 4.66D-15 for   1670.
 Iteration    1 A^-1*A deviation from orthogonality  is 2.81D-15 for   1057   1036.
 Error on total polarization charges =  0.01516
 SCF Done:  E(RwB97XD) =  -5490.39645884     A.U. after   15 cycles
            NFock= 15  Conv=0.71D-08     -V/T= 2.0016
 DoSCS=F DFT=T ScalE2(SS,OS)=  1.000000  1.000000
 Range of M.O.s used for correlation:     1   361
 NBasis=   361 NAE=    62 NBE=    62 NFC=     0 NFV=     0
 NROrb=    361 NOA=    62 NOB=    62 NVA=   299 NVB=   299

 **** Warning!!: The largest alpha MO coefficient is  0.18566959D+02

   1 Symmetry operations used in ECPInt.
 ECPInt:  NShTT=   10011 NPrTT=   35821 LenC2=    9494 LenP2D=   24769.
 LDataN:  DoStor=T MaxTD1= 7 Len=  274
 Symmetrizing basis deriv contribution to polar:
 IMax=3 JMax=2 DiffMx= 0.00D+00
 G2DrvN: will do    18 centers at a time, making    1 passes.
 Calling FoFCou, ICntrl=  3107 FMM=F I1Cent=   0 AccDes= 0.00D+00.
 NEqPCM:  Using equilibrium solvation (IEInf=0, Eps=  78.3553, EpsInf=   1.7778)
 G2PCM: DoFxE=T DoFxN=T DoGrad=T DoDP/DQ/DG/TGxP=FFFF NFrqRd=   0 IEInf=0 SqF1=F DoCFld=F IF1Alg=4.
 End of G2Drv F.D. properties file   721 does not exist.
 End of G2Drv F.D. properties file   722 does not exist.
 End of G2Drv F.D. properties file   788 does not exist.
          IDoAtm=11111111111111111
 NEqPCM:  Using equilibrium solvation (IEInf=0, Eps=  78.3553, EpsInf=   1.7778)
          Differentiating once with respect to nuclear coordinates.
 Keep R1 ints in memory in canonical form, NReq=4304234270.
          There are    54 degrees of freedom in the 1st order CPHF.  IDoFFX=6 NUNeed=     0.
     48 vectors produced by pass  0 Test12= 3.43D-14 1.85D-09 XBig12= 1.36D-01 1.16D-01.
 AX will form    48 AO Fock derivatives at one time.
     48 vectors produced by pass  1 Test12= 3.43D-14 1.85D-09 XBig12= 2.72D-02 3.94D-02.
     48 vectors produced by pass  2 Test12= 3.43D-14 1.85D-09 XBig12= 8.61D-04 4.76D-03.
     48 vectors produced by pass  3 Test12= 3.43D-14 1.85D-09 XBig12= 1.30D-05 5.06D-04.
     48 vectors produced by pass  4 Test12= 3.43D-14 1.85D-09 XBig12= 1.51D-07 4.96D-05.
     48 vectors produced by pass  5 Test12= 3.43D-14 1.85D-09 XBig12= 1.56D-09 4.32D-06.
     48 vectors produced by pass  6 Test12= 3.43D-14 1.85D-09 XBig12= 1.21D-11 3.86D-07.
     21 vectors produced by pass  7 Test12= 3.43D-14 1.85D-09 XBig12= 8.95D-14 3.41D-08.
      4 vectors produced by pass  8 Test12= 3.43D-14 1.85D-09 XBig12= 5.87D-16 3.18D-09.
 InvSVY:  IOpt=1 It=  1 EMax= 4.44D-16
 Solved reduced A of dimension   361 with    54 vectors.
 End of Minotr F.D. properties file   721 does not exist.
 End of Minotr F.D. properties file   722 does not exist.
 End of Minotr F.D. properties file   788 does not exist.

 **********************************************************************

            Population analysis using the SCF density.

 **********************************************************************

 Orbital symmetries:
       Occupied  (A) (A) (A) (A) (A) (A) (A) (A) (A) (A) (A) (A)
                 (A) (A) (A) (A) (A) (A) (A) (A) (A) (A) (A) (A)
                 (A) (A) (A) (A) (A) (A) (A) (A) (A) (A) (A) (A)
                 (A) (A) (A) (A) (A) (A) (A) (A) (A) (A) (A) (A)
                 (A) (A) (A) (A) (A) (A) (A) (A) (A) (A) (A) (A)
                 (A) (A)
       Virtual   (A) (A) (A) (A) (A) (A) (A) (A) (A) (A) (A) (A)
                 (A) (A) (A) (A) (A) (A) (A) (A) (A) (A) (A) (A)
                 (A) (A) (A) (A) (A) (A) (A) (A) (A) (A) (A) (A)
                 (A) (A) (A) (A) (A) (A) (A) (A) (A) (A) (A) (A)
                 (A) (A) (A) (A) (A) (A) (A) (A) (A) (A) (A) (A)
                 (A) (A) (A) (A) (A) (A) (A) (A) (A) (A) (A) (A)
                 (A) (A) (A) (A) (A) (A) (A) (A) (A) (A) (A) (A)
                 (A) (A) (A) (A) (A) (A) (A) (A) (A) (A) (A) (A)
                 (A) (A) (A) (A) (A) (A) (A) (A) (A) (A) (A) (A)
                 (A) (A) (A) (A) (A) (A) (A) (A) (A) (A) (A) (A)
                 (A) (A) (A) (A) (A) (A) (A) (A) (A) (A) (A) (A)
                 (A) (A) (A) (A) (A) (A) (A) (A) (A) (A) (A) (A)
                 (A) (A) (A) (A) (A) (A) (A) (A) (A) (A) (A) (A)
                 (A) (A) (A) (A) (A) (A) (A) (A) (A) (A) (A) (A)
                 (A) (A) (A) (A) (A) (A) (A) (A) (A) (A) (A) (A)
                 (A) (A) (A) (A) (A) (A) (A) (A) (A) (A) (A) (A)
                 (A) (A) (A) (A) (A) (A) (A) (A) (A) (A) (A) (A)
                 (A) (A) (A) (A) (A) (A) (A) (A) (A) (A) (A) (A)
                 (A) (A) (A) (A) (A) (A) (A) (A) (A) (A) (A) (A)
                 (A) (A) (A) (A) (A) (A) (A) (A) (A) (A) (A) (A)
                 (A) (A) (A) (A) (A) (A) (A) (A) (A) (A) (A) (A)
                 (A) (A) (A) (A) (A) (A) (A) (A) (A) (A) (A) (A)
                 (A) (A) (A) (A) (A) (A) (A) (A) (A) (A) (A) (A)
                 (A) (A) (A) (A) (A) (A) (A) (A) (A) (A) (A) (A)
                 (A) (A) (A) (A) (A) (A) (A) (A) (A) (A) (A)
 The electronic state is 1-A.
 Alpha  occ. eigenvalues -- -483.12897-483.12736 -62.67754 -62.67570 -56.46868
 Alpha  occ. eigenvalues --  -56.46676 -56.46517 -56.46501 -56.46345 -56.46323
 Alpha  occ. eigenvalues --  -19.20203 -14.50533 -14.43948 -10.39693 -10.38443
 Alpha  occ. eigenvalues --  -10.32702 -10.30620  -8.81867  -8.81686  -6.64015
 Alpha  occ. eigenvalues --   -6.63803  -6.62902  -6.62846  -6.62744  -6.62676
 Alpha  occ. eigenvalues --   -2.74397  -2.74197  -2.74091  -2.74046  -2.73901
 Alpha  occ. eigenvalues --   -2.73846  -2.73146  -2.73146  -2.72989  -2.72989
 Alpha  occ. eigenvalues --   -1.12805  -1.05435  -0.99648  -0.93873  -0.88949
 Alpha  occ. eigenvalues --   -0.81411  -0.79811  -0.74372  -0.65600  -0.64409
 Alpha  occ. eigenvalues --   -0.61695  -0.57654  -0.56643  -0.54036  -0.52487
 Alpha  occ. eigenvalues --   -0.50765  -0.50074  -0.49054  -0.46319  -0.45224
 Alpha  occ. eigenvalues --   -0.39733  -0.38553  -0.37851  -0.37093  -0.35032
 Alpha  occ. eigenvalues --   -0.33542  -0.27260
 Alpha virt. eigenvalues --    0.02799   0.06026   0.09103   0.10823   0.13299
 Alpha virt. eigenvalues --    0.13884   0.15964   0.16530   0.17724   0.17877
 Alpha virt. eigenvalues --    0.18926   0.19101   0.21136   0.23700   0.24659
 Alpha virt. eigenvalues --    0.26316   0.27470   0.28351   0.28721   0.29302
 Alpha virt. eigenvalues --    0.30138   0.31114   0.32292   0.32535   0.33328
 Alpha virt. eigenvalues --    0.33501   0.34983   0.35427   0.36408   0.37167
 Alpha virt. eigenvalues --    0.38229   0.39132   0.40325   0.40955   0.43018
 Alpha virt. eigenvalues --    0.44130   0.44459   0.47303   0.48418   0.48743
 Alpha virt. eigenvalues --    0.49094   0.50163   0.50885   0.51424   0.52873
 Alpha virt. eigenvalues --    0.53276   0.53972   0.55701   0.56247   0.57642
 Alpha virt. eigenvalues --    0.57955   0.58341   0.59142   0.60852   0.62173
 Alpha virt. eigenvalues --    0.63144   0.64274   0.65502   0.67684   0.68910
 Alpha virt. eigenvalues --    0.69375   0.72443   0.73225   0.74898   0.75856
 Alpha virt. eigenvalues --    0.76995   0.81401   0.83688   0.85734   0.89032
 Alpha virt. eigenvalues --    0.89550   0.94249   0.95477   0.97146   0.98820
 Alpha virt. eigenvalues --    0.99885   1.00419   1.04191   1.07391   1.08498
 Alpha virt. eigenvalues --    1.08820   1.10787   1.12372   1.13975   1.14493
 Alpha virt. eigenvalues --    1.18621   1.19578   1.23623   1.27561   1.28619
 Alpha virt. eigenvalues --    1.30081   1.34091   1.34909   1.37906   1.38185
 Alpha virt. eigenvalues --    1.39790   1.42064   1.42972   1.44481   1.46039
 Alpha virt. eigenvalues --    1.47751   1.48803   1.49125   1.51153   1.51402
 Alpha virt. eigenvalues --    1.52448   1.54281   1.54949   1.56451   1.57711
 Alpha virt. eigenvalues --    1.58375   1.59571   1.60661   1.61176   1.61575
 Alpha virt. eigenvalues --    1.62086   1.63024   1.63767   1.65283   1.65803
 Alpha virt. eigenvalues --    1.66406   1.67740   1.68464   1.69842   1.70639
 Alpha virt. eigenvalues --    1.71416   1.72621   1.73603   1.74417   1.74663
 Alpha virt. eigenvalues --    1.76527   1.78564   1.78889   1.81017   1.83211
 Alpha virt. eigenvalues --    1.83804   1.84316   1.86221   1.89584   1.91362
 Alpha virt. eigenvalues --    1.92162   1.93455   1.95177   1.96931   1.98403
 Alpha virt. eigenvalues --    1.99229   2.00358   2.01158   2.02467   2.05785
 Alpha virt. eigenvalues --    2.07644   2.08946   2.09707   2.11567   2.16928
 Alpha virt. eigenvalues --    2.21005   2.24025   2.25078   2.28983   2.30502
 Alpha virt. eigenvalues --    2.31646   2.33368   2.38997   2.39936   2.40465
 Alpha virt. eigenvalues --    2.41875   2.45075   2.47312   2.50633   2.54078
 Alpha virt. eigenvalues --    2.57546   2.59822   2.61580   2.63620   2.66075
 Alpha virt. eigenvalues --    2.67404   2.70333   2.73277   2.74631   2.75329
 Alpha virt. eigenvalues --    2.77368   2.78879   2.82839   2.84832   2.86745
 Alpha virt. eigenvalues --    2.87806   2.89080   2.93397   2.96424   2.98268
 Alpha virt. eigenvalues --    2.99579   3.03266   3.05023   3.10275   3.11794
 Alpha virt. eigenvalues --    3.15120   3.16231   3.19146   3.20899   3.21791
 Alpha virt. eigenvalues --    3.23532   3.25841   3.28423   3.28965   3.31186
 Alpha virt. eigenvalues --    3.34439   3.35172   3.37400   3.38906   3.40572
 Alpha virt. eigenvalues --    3.42910   3.45386   3.47454   3.50062   3.52090
 Alpha virt. eigenvalues --    3.54832   3.56750   3.58966   3.61106   3.61539
 Alpha virt. eigenvalues --    3.62962   3.69121   3.71101   3.76592   3.80754
 Alpha virt. eigenvalues --    3.84731   3.89923   3.91046   3.93406   3.96114
 Alpha virt. eigenvalues --    4.00497   4.09937   4.13010   4.13951   4.15422
 Alpha virt. eigenvalues --    4.18052   4.18892   4.20830   4.22774   4.23989
 Alpha virt. eigenvalues --    4.27494   4.29971   4.31863   4.36688   4.39381
 Alpha virt. eigenvalues --    4.41093   4.44659   4.46221   4.47838   4.49858
 Alpha virt. eigenvalues --    4.57571   4.59045   4.68460   4.71303   4.75007
 Alpha virt. eigenvalues --    4.77893   4.79935   4.86132   4.90129   4.93913
 Alpha virt. eigenvalues --    4.95783   4.96359   5.03989   5.07138   5.08982
 Alpha virt. eigenvalues --    5.12381   5.17031   5.18737   5.22139   5.24142
 Alpha virt. eigenvalues --    5.31455   5.34621   5.36105   5.38391   5.41292
 Alpha virt. eigenvalues --    5.48880   5.49592   5.55441   5.73104   5.86605
 Alpha virt. eigenvalues --    5.88000   6.07356   6.19322   6.40154   6.52459
 Alpha virt. eigenvalues --    6.68568   6.80408   6.93479   7.15703   7.21665
 Alpha virt. eigenvalues --    7.71227   7.79359  22.42029  22.46969  22.78312
 Alpha virt. eigenvalues --   23.40741  32.10858  32.13788  44.09585
          Condensed to atoms (all electrons):
               1          2          3          4          5          6
     1  C    6.165446   0.024802  -0.208653   0.317538  -0.003009  -0.000655
     2  C    0.024802   4.602767   0.724085  -0.045168   0.000008   0.000103
     3  O   -0.208653   0.724085   8.089700   0.029831   0.000155   0.000005
     4  C    0.317538  -0.045168   0.029831   5.012633   0.006259   0.002126
     5  C   -0.003009   0.000008   0.000155   0.006259   4.862516   0.407772
     6  H   -0.000655   0.000103   0.000005   0.002126   0.407772   0.497471
     7  H    0.003046  -0.000169  -0.000015  -0.006816   0.413656  -0.019094
     8  H   -0.003897  -0.000017  -0.000024   0.005430   0.412157  -0.018558
     9  N   -0.028096   0.006441   0.005219   0.049082   0.242948  -0.023269
    10  H   -0.007138   0.001527   0.001134   0.006470  -0.021708  -0.004431
    11  H    0.008317  -0.001522   0.002884  -0.024877  -0.016886  -0.004539
    12  H   -0.079726   0.010988   0.000106   0.472359   0.000146   0.000506
    13  Br  -0.006469  -0.027179  -0.012038   0.249693   0.000170  -0.000567
    14  Br   0.229802  -0.029729   0.005743  -0.075122  -0.002621   0.000099
    15  N   -0.193492   0.477947  -0.113745   0.007026   0.000001   0.000001
    16  H   -0.006362  -0.019718   0.004071   0.000329  -0.000002  -0.000000
    17  H    0.019261  -0.022472   0.006446  -0.000777  -0.000001   0.000000
               7          8          9         10         11         12
     1  C    0.003046  -0.003897  -0.028096  -0.007138   0.008317  -0.079726
     2  C   -0.000169  -0.000017   0.006441   0.001527  -0.001522   0.010988
     3  O   -0.000015  -0.000024   0.005219   0.001134   0.002884   0.000106
     4  C   -0.006816   0.005430   0.049082   0.006470  -0.024877   0.472359
     5  C    0.413656   0.412157   0.242948  -0.021708  -0.016886   0.000146
     6  H   -0.019094  -0.018558  -0.023269  -0.004431  -0.004539   0.000506
     7  H    0.497079  -0.023362  -0.031897  -0.004963   0.005277  -0.000746
     8  H   -0.023362   0.497623  -0.034086   0.005312  -0.005187  -0.002616
     9  N   -0.031897  -0.034086   6.470616   0.346525   0.357734  -0.028742
    10  H   -0.004963   0.005312   0.346525   0.405868  -0.018808   0.000854
    11  H    0.005277  -0.005187   0.357734  -0.018808   0.397456   0.000680
    12  H   -0.000746  -0.002616  -0.028742   0.000854   0.000680   0.459152
    13  Br   0.003913   0.000561  -0.063659   0.002450   0.004120  -0.035679
    14  Br   0.000042   0.001250   0.008094  -0.000228   0.000684  -0.004958
    15  N    0.000000  -0.000016   0.000743   0.000021  -0.000284  -0.000040
    16  H    0.000000   0.000002  -0.000022  -0.000001  -0.000009   0.000036
    17  H    0.000000  -0.000001   0.000027  -0.000006   0.000005   0.000004
              13         14         15         16         17
     1  C   -0.006469   0.229802  -0.193492  -0.006362   0.019261
     2  C   -0.027179  -0.029729   0.477947  -0.019718  -0.022472
     3  O   -0.012038   0.005743  -0.113745   0.004071   0.006446
     4  C    0.249693  -0.075122   0.007026   0.000329  -0.000777
     5  C    0.000170  -0.002621   0.000001  -0.000002  -0.000001
     6  H   -0.000567   0.000099   0.000001  -0.000000   0.000000
     7  H    0.003913   0.000042   0.000000   0.000000   0.000000
     8  H    0.000561   0.001250  -0.000016   0.000002  -0.000001
     9  N   -0.063659   0.008094   0.000743  -0.000022   0.000027
    10  H    0.002450  -0.000228   0.000021  -0.000001  -0.000006
    11  H    0.004120   0.000684  -0.000284  -0.000009   0.000005
    12  H   -0.035679  -0.004958  -0.000040   0.000036   0.000004
    13  Br  35.008590   0.007815  -0.001079  -0.000040  -0.000005
    14  Br   0.007815  35.014610  -0.003249   0.007278   0.000345
    15  N   -0.001079  -0.003249   6.576781   0.371497   0.354263
    16  H   -0.000040   0.007278   0.371497   0.394826  -0.020238
    17  H   -0.000005   0.000345   0.354263  -0.020238   0.393398
 Mulliken charges:
               1
     1  C   -0.230714
     2  C    0.297307
     3  O   -0.534903
     4  C   -0.006015
     5  C   -0.301560
     6  H    0.163031
     7  H    0.164047
     8  H    0.165429
     9  N   -0.277655
    10  H    0.287124
    11  H    0.294956
    12  H    0.207676
    13  Br  -0.130596
    14  Br  -0.159853
    15  N   -0.476376
    16  H    0.268353
    17  H    0.269750
 Sum of Mulliken charges =  -0.00000
 Mulliken charges with hydrogens summed into heavy atoms:
               1
     1  C   -0.230714
     2  C    0.297307
     3  O   -0.534903
     4  C    0.201661
     5  C    0.190947
     9  N    0.304424
    13  Br  -0.130596
    14  Br  -0.159853
    15  N    0.061727
 APT charges:
               1
     1  C   -0.373736
     2  C   -0.212828
     3  O   -0.270573
     4  C   -0.601909
     5  C   -1.233367
     6  H    0.729980
     7  H    0.411594
     8  H    0.248071
     9  N   -0.595308
    10  H    0.614421
    11  H    0.412417
    12  H    0.441443
    13  Br   0.069719
    14  Br  -0.001634
    15  N   -1.069358
    16  H    0.541769
    17  H    0.889300
 Sum of APT charges =  -0.00000
 APT charges with hydrogens summed into heavy atoms:
               1
     1  C   -0.373736
     2  C   -0.212828
     3  O   -0.270573
     4  C   -0.160465
     5  C    0.156277
     9  N    0.431529
    13  Br   0.069719
    14  Br  -0.001634
    15  N    0.361711
 Electronic spatial extent (au):  <R**2>=           2685.8024
 Charge=              0.0000 electrons
 Dipole moment (field-independent basis, Debye):
    X=              0.6642    Y=              6.5648    Z=              3.4028  Tot=              7.4240
 Quadrupole moment (field-independent basis, Debye-Ang):
   XX=            -73.3053   YY=            -74.3077   ZZ=            -76.0592
   XY=             13.8636   XZ=              1.0641   YZ=              7.5417
 Traceless Quadrupole moment (field-independent basis, Debye-Ang):
   XX=              1.2521   YY=              0.2497   ZZ=             -1.5018
   XY=             13.8636   XZ=              1.0641   YZ=              7.5417
 Octapole moment (field-independent basis, Debye-Ang**2):
  XXX=             -5.8507  YYY=             31.5683  ZZZ=            -14.3240  XYY=             -4.4128
  XXY=             -6.2314  XXZ=              7.9228  XZZ=              5.4708  YZZ=             17.3935
  YYZ=             -0.0712  XYZ=             20.5508
 Hexadecapole moment (field-independent basis, Debye-Ang**3):
 XXXX=          -1412.8068 YYYY=           -858.5571 ZZZZ=           -456.4036 XXXY=            -13.3978
 XXXZ=             -0.7408 YYYX=             12.5358 YYYZ=             17.0081 ZZZX=              2.8218
 ZZZY=             29.0848 XXYY=           -347.2639 XXZZ=           -308.8718 YYZZ=           -211.5771
 XXYZ=             -6.9199 YYXZ=            -21.2256 ZZXY=             11.0384
 N-N= 1.048606793250D+03 E-N=-1.520196164899D+04  KE= 5.481565863767D+03
  Exact polarizability:   0.000   0.000   0.000   0.000   0.000   0.000
 Approx polarizability: 148.857  -1.044 125.335   4.966  -2.296 110.363
   1 Symmetry operations used in ECPInt.
 ECPInt:  NShTT=   10011 NPrTT=   35821 LenC2=    9494 LenP2D=   24769.
 LDataN:  DoStor=T MaxTD1= 8 Len=  415
 D2PCM: PCM CHGder 2nd derivatives, FixD1E=F FixD2E=F DoIter=F DoCFld=F I1PDM=0
 Calling FoFJK, ICntrl=    100147 FMM=F ISym2X=0 I1Cent= 0 IOpClX= 0 NMat=1 NMatS=1 NMatT=0.
 ***** Axes restored to original set *****
 -------------------------------------------------------------------
 Center     Atomic                   Forces (Hartrees/Bohr)
 Number     Number              X              Y              Z
 -------------------------------------------------------------------
      1        6           0.000006197    0.000009453   -0.000005382
      2        6          -0.000004175   -0.000005998    0.000004819
      3        8          -0.000004274    0.000002768    0.000008222
      4        6           0.004291074    0.004883458    0.010134797
      5        6           0.000007331   -0.000003997   -0.000002000
      6        1          -0.000001431    0.000003593   -0.000001689
      7        1           0.000005109   -0.000000849   -0.000001013
      8        1          -0.000000987    0.000001584   -0.000008415
      9        7          -0.004309501   -0.004890797   -0.010129447
     10        1           0.000005074   -0.000000343    0.000005541
     11        1          -0.000001149    0.000001345   -0.000001397
     12        1           0.000009610   -0.000001815   -0.000002417
     13       35           0.000003848   -0.000006792    0.000008762
     14       35           0.000005956   -0.000001785   -0.000008500
     15        7           0.000002012   -0.000001006    0.000002720
     16        1          -0.000006540    0.000004910   -0.000005238
     17        1          -0.000008155    0.000006272    0.000000639
 -------------------------------------------------------------------
 Cartesian Forces:  Max     0.010134797 RMS     0.002384896
 FormGI is forming the generalized inverse of G from B-inverse, IUseBI=4.

 GradGradGradGradGradGradGradGradGradGradGradGradGradGradGradGradGradGrad
 Berny optimization.
 Internal  Forces:  Max     0.012043553 RMS     0.001390671
 Search for a saddle point.
 Step number   1 out of a maximum of   70
 All quantities printed in internal units (Hartrees-Bohrs-Radians)
 Swapping is turned off.
 Second derivative matrix not updated -- analytic derivatives used.
 ITU=  0
     Eigenvalues ---   -0.04162  -0.00197   0.00168   0.00218   0.00756
     Eigenvalues ---    0.00912   0.01167   0.01525   0.02270   0.03445
     Eigenvalues ---    0.04085   0.04705   0.04822   0.05268   0.05703
     Eigenvalues ---    0.06230   0.08532   0.09403   0.10758   0.11413
     Eigenvalues ---    0.11840   0.13065   0.13404   0.14275   0.15270
     Eigenvalues ---    0.17754   0.18115   0.19736   0.22104   0.24536
     Eigenvalues ---    0.25108   0.30568   0.34250   0.34581   0.34836
     Eigenvalues ---    0.36337   0.36600   0.40757   0.45201   0.45323
     Eigenvalues ---    0.45938   0.48470   0.48760   0.49248   0.73913
 Eigenvectors required to have negative eigenvalues:
                          R6        D10       D7        D8        A10
   1                    0.85879  -0.24602  -0.20857  -0.18295  -0.16524
                          R8        D5        R2        R1        A8
   1                   -0.15580  -0.14550  -0.10605   0.08061   0.07074
 RFO step:  Lambda0=2.427853798D-03 Lambda=-2.04683833D-03.
 Linear search not attempted -- option 19 set.
 Maximum step size (   0.080) exceeded in Quadratic search.
    -- Step size scaled by   0.569
 Iteration  1 RMS(Cart)=  0.06347734 RMS(Int)=  0.00139558
 Iteration  2 RMS(Cart)=  0.00172738 RMS(Int)=  0.00007038
 Iteration  3 RMS(Cart)=  0.00000129 RMS(Int)=  0.00007038
 Iteration  4 RMS(Cart)=  0.00000000 RMS(Int)=  0.00007038
 Variable       Old X    -DE/DX   Delta X   Delta X   Delta X     New X
                                 (Linear)    (Quad)   (Total)
    R1        2.72098   0.00001   0.00000   0.01004   0.01004   2.73102
    R2        2.61764  -0.00000   0.00000  -0.00756  -0.00756   2.61009
    R3        3.62923  -0.00000   0.00000   0.00402   0.00402   3.63324
    R4        2.34240   0.00000   0.00000  -0.00413  -0.00413   2.33827
    R5        2.57197   0.00000   0.00000  -0.00249  -0.00249   2.56948
    R6        3.54259  -0.01204   0.00000   0.05476   0.05476   3.59735
    R7        2.04231   0.00000   0.00000  -0.00018  -0.00018   2.04213
    R8        3.70565  -0.00000   0.00000  -0.03134  -0.03134   3.67431
    R9        2.05857   0.00000   0.00000   0.00075   0.00075   2.05933
   R10        2.05691   0.00000   0.00000   0.00069   0.00069   2.05760
   R11        2.05653   0.00000   0.00000   0.00050   0.00050   2.05703
   R12        2.76471   0.00000   0.00000  -0.00149  -0.00149   2.76322
   R13        1.91590   0.00001   0.00000  -0.00070  -0.00070   1.91520
   R14        1.91633  -0.00000   0.00000  -0.00104  -0.00104   1.91529
   R15        1.89618   0.00001   0.00000  -0.00046  -0.00046   1.89573
   R16        1.89744  -0.00000   0.00000  -0.00024  -0.00024   1.89720
    A1        2.15923  -0.00000   0.00000   0.01358   0.01346   2.17269
    A2        2.09504  -0.00000   0.00000  -0.00991  -0.01003   2.08501
    A3        2.01264   0.00000   0.00000  -0.00881  -0.00894   2.00371
    A4        2.10590  -0.00000   0.00000   0.00555   0.00555   2.11145
    A5        2.07832   0.00000   0.00000  -0.00573  -0.00573   2.07259
    A6        2.09888   0.00000   0.00000   0.00017   0.00017   2.09905
    A7        1.97113  -0.00000   0.00000   0.00191   0.00189   1.97303
    A8        2.03325   0.00000   0.00000   0.00414   0.00397   2.03722
    A9        2.10380   0.00000   0.00000   0.00424   0.00418   2.10798
   A10        1.70146  -0.00000   0.00000  -0.03058  -0.03059   1.67086
   A11        1.72834   0.00000   0.00000   0.00055   0.00055   1.72889
   A12        1.86157  -0.00000   0.00000   0.01181   0.01170   1.87327
   A13        1.90761  -0.00000   0.00000  -0.00225  -0.00225   1.90535
   A14        1.90747  -0.00000   0.00000  -0.00167  -0.00168   1.90579
   A15        1.93702   0.00000   0.00000   0.00609   0.00609   1.94311
   A16        1.90972  -0.00000   0.00000  -0.00284  -0.00284   1.90689
   A17        1.90087   0.00000   0.00000  -0.00035  -0.00036   1.90052
   A18        1.90097  -0.00000   0.00000   0.00093   0.00092   1.90189
   A19        1.95978   0.00000   0.00000   0.00336   0.00337   1.96314
   A20        1.90167   0.00000   0.00000   0.00337   0.00337   1.90504
   A21        1.79038  -0.00000   0.00000  -0.00033  -0.00033   1.79006
   A22        1.95691  -0.00000   0.00000  -0.00352  -0.00353   1.95338
   A23        1.96006   0.00000   0.00000  -0.00316  -0.00316   1.95690
   A24        1.88646   0.00000   0.00000   0.00068   0.00067   1.88714
   A25        2.12269  -0.00000   0.00000   0.00611   0.00582   2.12851
   A26        2.04742   0.00000   0.00000   0.00305   0.00276   2.05018
   A27        2.06237  -0.00000   0.00000   0.00410   0.00379   2.06617
    D1        0.06212   0.00000   0.00000  -0.00289  -0.00287   0.05925
    D2       -3.06639   0.00000   0.00000  -0.00122  -0.00120  -3.06759
    D3       -2.87741   0.00000   0.00000   0.02975   0.02973  -2.84767
    D4        0.27727   0.00000   0.00000   0.03142   0.03141   0.30867
    D5       -1.14452   0.00000   0.00000  -0.07230  -0.07232  -1.21683
    D6       -3.09330   0.00000   0.00000  -0.03677  -0.03672  -3.13002
    D7        0.89021   0.00000   0.00000  -0.06662  -0.06664   0.82356
    D8        1.80367   0.00000   0.00000  -0.10381  -0.10383   1.69984
    D9       -0.14511   0.00000   0.00000  -0.06828  -0.06824  -0.21335
   D10       -2.44479   0.00000   0.00000  -0.09813  -0.09816  -2.54295
   D11       -0.16347   0.00000   0.00000   0.01893   0.01897  -0.14450
   D12       -2.96206   0.00000   0.00000  -0.02517  -0.02521  -2.98726
   D13        2.99115  -0.00000   0.00000   0.02055   0.02059   3.01174
   D14        0.19256  -0.00000   0.00000  -0.02355  -0.02359   0.16898
   D15       -2.06820  -0.00000   0.00000  -0.02830  -0.02834  -2.09654
   D16        2.03631   0.00000   0.00000  -0.02861  -0.02865   2.00766
   D17        0.03977   0.00000   0.00000  -0.03057  -0.03061   0.00916
   D18        0.07806   0.00000   0.00000  -0.04067  -0.04064   0.03742
   D19       -2.10060   0.00000   0.00000  -0.04099  -0.04096  -2.14156
   D20        2.18604   0.00000   0.00000  -0.04295  -0.04291   2.14313
   D21        1.96791  -0.00000   0.00000  -0.03485  -0.03484   1.93307
   D22       -0.21076   0.00000   0.00000  -0.03516  -0.03515  -0.24591
   D23       -2.20730   0.00000   0.00000  -0.03712  -0.03711  -2.24441
   D24        3.07929  -0.00000   0.00000   0.00219   0.00219   3.08148
   D25       -1.05597  -0.00000   0.00000   0.00649   0.00649  -1.04948
   D26        1.07221  -0.00000   0.00000   0.00247   0.00248   1.07469
   D27       -1.10308   0.00000   0.00000   0.00296   0.00296  -1.10012
   D28        1.04484  -0.00000   0.00000   0.00727   0.00726   1.05210
   D29       -3.11016  -0.00000   0.00000   0.00325   0.00325  -3.10691
   D30        0.97859  -0.00000   0.00000  -0.00013  -0.00013   0.97845
   D31        3.12650  -0.00000   0.00000   0.00417   0.00417   3.13067
   D32       -1.02849  -0.00000   0.00000   0.00015   0.00015  -1.02834
         Item               Value     Threshold  Converged?
 Maximum Force            0.012044     0.000450     NO 
 RMS     Force            0.001391     0.000300     NO 
 Maximum Displacement     0.270029     0.001800     NO 
 RMS     Displacement     0.063347     0.001200     NO 
 Predicted change in Energy= 4.453930D-04
 GradGradGradGradGradGradGradGradGradGradGradGradGradGradGradGradGradGrad

                          Input orientation:                          
 ---------------------------------------------------------------------
 Center     Atomic      Atomic             Coordinates (Angstroms)
 Number     Number       Type             X           Y           Z
 ---------------------------------------------------------------------
      1          6           0       -0.634915   -0.269042    0.028003
      2          6           0       -0.751713   -1.496180    0.782377
      3          8           0        0.227447   -1.983900    1.360681
      4          6           0        0.547387    0.416382   -0.172157
      5          6           0        1.332997    2.686524    1.283813
      6          1           0        1.656726    3.142008    2.219380
      7          1           0        2.060814    2.911697    0.505903
      8          1           0        0.366038    3.098659    1.000903
      9          7           0        1.211701    1.235055    1.412862
     10          1           0        2.092679    0.802806    1.666194
     11          1           0        0.519963    0.969846    2.104530
     12          1           0        0.488651    1.328683   -0.748405
     13         35           0        2.157484   -0.519253   -0.731372
     14         35           0       -2.223108    0.708811   -0.438847
     15          7           0       -1.958618   -2.120371    0.833083
     16          1           0       -2.791488   -1.696115    0.468809
     17          1           0       -2.054615   -2.891851    1.468323
 ---------------------------------------------------------------------
                    Distance matrix (angstroms):
                    1          2          3          4          5
     1  C    0.000000
     2  C    1.445195   0.000000
     3  O    2.336758   1.237360   0.000000
     4  C    1.381198   2.501337   2.865888   0.000000
     5  C    3.766312   4.700262   4.800106   2.809017   0.000000
     6  H    4.657147   5.420179   5.390282   3.791981   1.089748
     7  H    4.196718   5.236040   5.297052   2.996135   1.088836
     8  H    3.645525   4.733884   5.097162   2.933184   1.088532
     9  N    2.755020   3.422302   3.366475   1.903635   1.462234
    10  H    3.357424   3.762583   3.367219   2.432445   2.066816
    11  H    2.679655   3.073521   3.059983   2.343156   2.069198
    12  H    2.101888   3.444074   3.935693   1.080650   2.585839
    13  Br   2.904608   3.421878   3.201082   1.944363   3.875274
    14  Br   1.922630   2.918626   4.061307   2.798621   4.418686
    15  N    2.414076   1.359708   2.252968   3.704819   5.843297
    16  H    2.623291   2.073399   3.161048   4.002695   6.073148
    17  H    3.311978   2.028787   2.458408   4.517300   6.529030
                    6          7          8          9         10
     6  H    0.000000
     7  H    1.775481   0.000000
     8  H    1.775511   1.775456   0.000000
     9  N    2.117779   2.086791   2.087553   0.000000
    10  H    2.442937   2.407221   2.948702   1.013479   0.000000
    11  H    2.454324   2.949680   2.402817   1.013529   1.641182
    12  H    3.668827   2.559476   2.491572   2.280930   2.946140
    13  Br   4.728903   3.648508   4.393101   2.927429   2.738678
    14  Br   5.295255   4.908894   3.806301   3.937471   4.802713
    15  N    6.533388   6.448611   5.715808   4.652521   5.064785
    16  H    6.801363   6.691647   5.765670   5.050596   5.615463
    17  H    7.123595   7.179428   6.477982   5.263388   5.557850
                   11         12         13         14         15
    11  H    0.000000
    12  H    2.875583   0.000000
    13  Br   3.597392   2.490012   0.000000
    14  Br   3.749846   2.798876   4.558870   0.000000
    15  N    4.160455   4.515108   4.685445   3.113202   0.000000
    16  H    4.555068   4.624967   5.226640   2.632596   1.003175
    17  H    4.684647   5.403239   5.311277   4.078045   1.003956
                   16         17
    16  H    0.000000
    17  H    1.723890   0.000000
 Stoichiometry    C4H8Br2N2O
 Framework group  C1[X(C4H8Br2N2O)]
 Deg. of freedom    45
 Full point group                 C1      NOp   1
 Largest Abelian subgroup         C1      NOp   1
 Largest concise Abelian subgroup C1      NOp   1
                         Standard orientation:                         
 ---------------------------------------------------------------------
 Center     Atomic      Atomic             Coordinates (Angstroms)
 Number     Number       Type             X           Y           Z
 ---------------------------------------------------------------------
      1          6           0       -0.628533   -0.277714   -0.026222
      2          6           0       -0.749992   -1.487752    0.754575
      3          8           0        0.221069   -1.951985    1.364974
      4          6           0        0.551327    0.414398   -0.217578
      5          6           0        1.284318    2.725979    1.200131
      6          1           0        1.583660    3.206636    2.131213
      7          1           0        2.026496    2.939845    0.432669
      8          1           0        0.319832    3.121759    0.887037
      9          7           0        1.173855    1.276844    1.361179
     10          1           0        2.053205    0.859409    1.643367
     11          1           0        0.469968    1.021271    2.044161
     12          1           0        0.496426    1.312188   -0.816546
     13         35           0        2.181708   -0.518297   -0.720057
     14         35           0       -2.215431    0.673128   -0.549827
     15          7           0       -1.951821   -2.122428    0.794570
     16          1           0       -2.780625   -1.715135    0.402706
     17          1           0       -2.054190   -2.879573    1.445861
 ---------------------------------------------------------------------
 Rotational constants (GHZ):           0.9542542           0.4736968           0.4006196
 Standard basis: def2TZVP (5D, 7F)
 There are   410 symmetry adapted cartesian basis functions of A   symmetry.
 There are   361 symmetry adapted basis functions of A   symmetry.
   361 basis functions,   649 primitive gaussians,   410 cartesian basis functions
    62 alpha electrons       62 beta electrons
       nuclear repulsion energy      1049.1349961584 Hartrees.
 NAtoms=   17 NActive=   17 NUniq=   17 SFac= 1.00D+00 NAtFMM=   60 NAOKFM=F Big=F
 Integral buffers will be    131072 words long.
 Raffenetti 2 integral format.
 Two-electron integral symmetry is turned on.
 Nuclear repulsion after empirical dispersion term =     1049.1243428076 Hartrees.
 ------------------------------------------------------------------------------
 Polarizable Continuum Model (PCM)
 =================================
 Model                : PCM.
 Atomic radii         : UFF (Universal Force Field).
 Polarization charges : Total charges.
 Charge compensation  : None.
 Solution method      : Matrix inversion.
 Cavity type          : Scaled VdW (van der Waals Surface) (Alpha=1.100).
 Cavity algorithm     : GePol (No added spheres)
                        Default sphere list used, NSphG=   17.
                        Lebedev-Laikov grids with approx.  5.0 points / Ang**2.
                        Smoothing algorithm: York/Karplus (Gamma=1.0000).
                        Polarization charges: spherical gaussians, with
                                              point-specific exponents (IZeta= 3).
                        Self-potential: point-specific (ISelfS= 7).
                        Self-field    : sphere-specific E.n sum rule (ISelfD= 2).
 1st derivatives      : Analytical E(r).r(x)/FMM algorithm (CHGder, D1EAlg=3).
                        Cavity 1st derivative terms included.
 Solvent              : Water, Eps=  78.355300 Eps(inf)=   1.777849
 ------------------------------------------------------------------------------
 Spheres list:
 ISph  on   Nord     Re0    Alpha      Xe            Ye            Ze
    1   C      1    1.9255  1.100     -0.628533     -0.277714     -0.026222
    2   C      2    1.9255  1.100     -0.749992     -1.487752      0.754575
    3   O      3    1.7500  1.100      0.221069     -1.951985      1.364974
    4   C      4    1.9255  1.100      0.551327      0.414398     -0.217578
    5   C      5    1.9255  1.100      1.284318      2.725979      1.200131
    6   H      6    1.4430  1.100      1.583660      3.206636      2.131213
    7   H      7    1.4430  1.100      2.026496      2.939845      0.432669
    8   H      8    1.4430  1.100      0.319832      3.121759      0.887037
    9   N      9    1.8300  1.100      1.173855      1.276844      1.361179
   10   H     10    1.4430  1.100      2.053205      0.859409      1.643367
   11   H     11    1.4430  1.100      0.469968      1.021271      2.044161
   12   H     12    1.4430  1.100      0.496426      1.312188     -0.816546
   13  Br     13    2.0945  1.100      2.181708     -0.518297     -0.720057
   14  Br     14    2.0945  1.100     -2.215431      0.673128     -0.549827
   15   N     15    1.8300  1.100     -1.951821     -2.122428      0.794570
   16   H     16    1.4430  1.100     -2.780625     -1.715135      0.402706
   17   H     17    1.4430  1.100     -2.054190     -2.879573      1.445861
 ------------------------------------------------------------------------------
 One-electron integrals computed using PRISM.
   1 Symmetry operations used in ECPInt.
 ECPInt:  NShTT=   10011 NPrTT=   35821 LenC2=    9488 LenP2D=   24760.
 LDataN:  DoStor=T MaxTD1= 6 Len=  172
 NBasis=   361 RedAO= T EigKep=  1.09D-04  NBF=   361
 NBsUse=   361 1.00D-06 EigRej= -1.00D+00 NBFU=   361
 Initial guess from the checkpoint file:  "/beegfs/scratch/user/q/tla25/Gau-69144.chk"
 B after Tr=    -0.000000    0.000000   -0.000000
         Rot=    0.999987    0.003332    0.003411   -0.001751 Ang=   0.58 deg.
 ExpMin= 9.52D-02 ExpMax= 5.65D+05 ExpMxC= 5.46D+03 IAcc=2 IRadAn=         4 AccDes= 0.00D+00
 Harris functional with IExCor= 4639 and IRadAn=       4 diagonalized for initial guess.
 HarFok:  IExCor= 4639 AccDes= 0.00D+00 IRadAn=         4 IDoV= 1 UseB2=F ITyADJ=14
 ICtDFT=  3500011 ScaDFX=  1.000000  1.000000  1.000000  1.000000
 FoFCou: FMM=F IPFlag=           0 FMFlag=      100000 FMFlg1=           0
         NFxFlg=           0 DoJE=T BraDBF=F KetDBF=T FulRan=T
         wScrn=  0.000000 ICntrl=       500 IOpCl=  0 I1Cent=   200000004 NGrid=           0
         NMat0=    1 NMatS0=      1 NMatT0=    0 NMatD0=    1 NMtDS0=    0 NMtDT0=    0
 Petite list used in FoFCou.
 Requested convergence on RMS density matrix=1.00D-08 within 128 cycles.
 Requested convergence on MAX density matrix=1.00D-06.
 Requested convergence on             energy=1.00D-06.
 No special actions if energy rises.
 Inv3:  Mode=1 IEnd=     8376723.
 Iteration    1 A*A^-1 deviation from unit magnitude is 5.44D-15 for   1640.
 Iteration    1 A*A^-1 deviation from orthogonality  is 2.14D-15 for   1658   1536.
 Iteration    1 A^-1*A deviation from unit magnitude is 5.22D-15 for   1640.
 Iteration    1 A^-1*A deviation from orthogonality  is 2.35D-15 for   1658   1536.
 Error on total polarization charges =  0.01506
 SCF Done:  E(RwB97XD) =  -5490.39599039     A.U. after   13 cycles
            NFock= 13  Conv=0.66D-08     -V/T= 2.0016
   1 Symmetry operations used in ECPInt.
 ECPInt:  NShTT=   10011 NPrTT=   35821 LenC2=    9488 LenP2D=   24760.
 LDataN:  DoStor=T MaxTD1= 7 Len=  274
 D1PCM: PCM CHGder 1st derivatives, ID1Alg=3 FixD1E=F DoIter=F DoCFld=F I1PDM=0.
 Calling FoFJK, ICntrl=      2127 FMM=F ISym2X=0 I1Cent= 0 IOpClX= 0 NMat=1 NMatS=1 NMatT=0.
 ***** Axes restored to original set *****
 -------------------------------------------------------------------
 Center     Atomic                   Forces (Hartrees/Bohr)
 Number     Number              X              Y              Z
 -------------------------------------------------------------------
      1        6          -0.000016957    0.000000226    0.000197592
      2        6          -0.000120644   -0.000018310   -0.000050400
      3        8           0.000099737   -0.000051959    0.000105098
      4        6           0.001852829    0.002780590    0.004943674
      5        6           0.000129887   -0.000005921   -0.000076281
      6        1           0.000008888    0.000003749   -0.000008550
      7        1          -0.000030297    0.000019181    0.000013160
      8        1           0.000022723    0.000024694   -0.000002701
      9        7          -0.002209324   -0.002447220   -0.004924700
     10        1          -0.000058579   -0.000141962    0.000135372
     11        1          -0.000062692    0.000068493    0.000047124
     12        1          -0.000084324   -0.000039981   -0.000015700
     13       35           0.000449505   -0.000216673   -0.000319948
     14       35           0.000054135   -0.000046074   -0.000028195
     15        7          -0.000012020    0.000046902    0.000076189
     16        1          -0.000009989    0.000061263   -0.000069795
     17        1          -0.000012875   -0.000036998   -0.000021941
 -------------------------------------------------------------------
 Cartesian Forces:  Max     0.004943674 RMS     0.001182147

 GradGradGradGradGradGradGradGradGradGradGradGradGradGradGradGradGradGrad
 Berny optimization.
 FormGI is forming the generalized inverse of G from B-inverse, IUseBI=4.
 Internal  Forces:  Max     0.005826636 RMS     0.000680330
 Search for a saddle point.
 Step number   2 out of a maximum of   70
 All quantities printed in internal units (Hartrees-Bohrs-Radians)
 Swapping is turned off.
 Update second derivatives using D2CorX and points    1    2
 ITU=  0  0
     Eigenvalues ---   -0.04043  -0.00185   0.00164   0.00218   0.00781
     Eigenvalues ---    0.00914   0.01164   0.01528   0.02270   0.03445
     Eigenvalues ---    0.04089   0.04705   0.04822   0.05268   0.05704
     Eigenvalues ---    0.06230   0.08532   0.09397   0.10758   0.11413
     Eigenvalues ---    0.11844   0.13069   0.13404   0.14281   0.15269
     Eigenvalues ---    0.17755   0.18115   0.19736   0.22153   0.24537
     Eigenvalues ---    0.25110   0.30594   0.34250   0.34582   0.34836
     Eigenvalues ---    0.36337   0.36600   0.40756   0.45201   0.45324
     Eigenvalues ---    0.45941   0.48470   0.48760   0.49248   0.73917
 Eigenvectors required to have negative eigenvalues:
                          R6        D10       D7        D8        A10
   1                    0.86332  -0.24004  -0.20835  -0.17562  -0.16579
                          R8        D5        R2        R1        A8
   1                   -0.14923  -0.14392  -0.10731   0.08140   0.07019
 RFO step:  Lambda0=6.485585840D-04 Lambda=-1.89560572D-03.
 Linear search not attempted -- option 19 set.
 Maximum step size (   0.080) exceeded in Quadratic search.
    -- Step size scaled by   0.965
 Iteration  1 RMS(Cart)=  0.06653777 RMS(Int)=  0.00134713
 Iteration  2 RMS(Cart)=  0.00187324 RMS(Int)=  0.00011185
 Iteration  3 RMS(Cart)=  0.00000143 RMS(Int)=  0.00011185
 Iteration  4 RMS(Cart)=  0.00000000 RMS(Int)=  0.00011185
 Variable       Old X    -DE/DX   Delta X   Delta X   Delta X     New X
                                 (Linear)    (Quad)   (Total)
    R1        2.73102   0.00003   0.00000   0.01006   0.01006   2.74108
    R2        2.61009   0.00005   0.00000  -0.00901  -0.00901   2.60107
    R3        3.63324  -0.00006   0.00000   0.00252   0.00252   3.63576
    R4        2.33827   0.00015   0.00000  -0.00366  -0.00366   2.33461
    R5        2.56948  -0.00002   0.00000  -0.00341  -0.00341   2.56607
    R6        3.59735  -0.00583   0.00000   0.06022   0.06022   3.65757
    R7        2.04213  -0.00001   0.00000  -0.00043  -0.00043   2.04170
    R8        3.67431   0.00056   0.00000  -0.02073  -0.02073   3.65358
    R9        2.05933   0.00000   0.00000   0.00084   0.00084   2.06016
   R10        2.05760  -0.00003   0.00000   0.00057   0.00057   2.05817
   R11        2.05703  -0.00001   0.00000   0.00047   0.00047   2.05749
   R12        2.76322   0.00006   0.00000  -0.00168  -0.00168   2.76154
   R13        1.91520   0.00004   0.00000  -0.00060  -0.00060   1.91459
   R14        1.91529   0.00006   0.00000  -0.00089  -0.00089   1.91440
   R15        1.89573   0.00005   0.00000  -0.00038  -0.00038   1.89535
   R16        1.89720   0.00002   0.00000  -0.00030  -0.00030   1.89690
    A1        2.17269   0.00019   0.00000   0.01374   0.01372   2.18641
    A2        2.08501  -0.00010   0.00000  -0.00814  -0.00815   2.07686
    A3        2.00371  -0.00008   0.00000  -0.00811  -0.00812   1.99558
    A4        2.11145   0.00010   0.00000   0.00474   0.00474   2.11619
    A5        2.07259  -0.00018   0.00000  -0.00633  -0.00633   2.06626
    A6        2.09905   0.00008   0.00000   0.00159   0.00159   2.10064
    A7        1.97303  -0.00030   0.00000  -0.00117  -0.00117   1.97186
    A8        2.03722   0.00002   0.00000   0.00614   0.00595   2.04317
    A9        2.10798   0.00002   0.00000   0.00585   0.00579   2.11377
   A10        1.67086   0.00011   0.00000  -0.02788  -0.02788   1.64298
   A11        1.72889   0.00028   0.00000   0.00002   0.00004   1.72893
   A12        1.87327  -0.00008   0.00000   0.00809   0.00796   1.88123
   A13        1.90535  -0.00002   0.00000  -0.00244  -0.00245   1.90291
   A14        1.90579  -0.00002   0.00000  -0.00209  -0.00210   1.90370
   A15        1.94311  -0.00002   0.00000   0.00598   0.00597   1.94908
   A16        1.90689  -0.00003   0.00000  -0.00299  -0.00299   1.90390
   A17        1.90052   0.00005   0.00000   0.00003   0.00003   1.90055
   A18        1.90189   0.00003   0.00000   0.00137   0.00137   1.90326
   A19        1.96314   0.00004   0.00000   0.00571   0.00571   1.96885
   A20        1.90504  -0.00003   0.00000  -0.00023  -0.00023   1.90481
   A21        1.79006   0.00001   0.00000  -0.00045  -0.00044   1.78961
   A22        1.95338   0.00001   0.00000  -0.00271  -0.00271   1.95066
   A23        1.95690  -0.00000   0.00000  -0.00181  -0.00181   1.95509
   A24        1.88714  -0.00003   0.00000  -0.00045  -0.00046   1.88668
   A25        2.12851  -0.00008   0.00000   0.00536   0.00484   2.13335
   A26        2.05018   0.00006   0.00000   0.00484   0.00432   2.05450
   A27        2.06617   0.00003   0.00000   0.00535   0.00481   2.07098
    D1        0.05925   0.00004   0.00000   0.00377   0.00377   0.06302
    D2       -3.06759   0.00004   0.00000   0.00381   0.00381  -3.06378
    D3       -2.84767  -0.00001   0.00000   0.01827   0.01826  -2.82941
    D4        0.30867  -0.00000   0.00000   0.01831   0.01830   0.32698
    D5       -1.21683  -0.00007   0.00000  -0.06685  -0.06687  -1.28370
    D6       -3.13002  -0.00002   0.00000  -0.03409  -0.03404   3.11913
    D7        0.82356   0.00007   0.00000  -0.06329  -0.06332   0.76024
    D8        1.69984  -0.00003   0.00000  -0.08092  -0.08094   1.61890
    D9       -0.21335   0.00002   0.00000  -0.04816  -0.04811  -0.26146
   D10       -2.54295   0.00011   0.00000  -0.07736  -0.07739  -2.62034
   D11       -0.14450   0.00002   0.00000   0.02807   0.02812  -0.11638
   D12       -2.98726  -0.00004   0.00000  -0.03195  -0.03200  -3.01927
   D13        3.01174   0.00003   0.00000   0.02808   0.02813   3.03987
   D14        0.16898  -0.00004   0.00000  -0.03194  -0.03199   0.13698
   D15       -2.09654  -0.00006   0.00000  -0.05705  -0.05709  -2.15364
   D16        2.00766  -0.00007   0.00000  -0.05742  -0.05747   1.95019
   D17        0.00916  -0.00003   0.00000  -0.05660  -0.05665  -0.04748
   D18        0.03742  -0.00009   0.00000  -0.06621  -0.06617  -0.02875
   D19       -2.14156  -0.00010   0.00000  -0.06659  -0.06655  -2.20811
   D20        2.14313  -0.00007   0.00000  -0.06576  -0.06573   2.07740
   D21        1.93307  -0.00010   0.00000  -0.06355  -0.06353   1.86954
   D22       -0.24591  -0.00012   0.00000  -0.06392  -0.06391  -0.30983
   D23       -2.24441  -0.00008   0.00000  -0.06310  -0.06309  -2.30750
   D24        3.08148   0.00002   0.00000   0.00580   0.00580   3.08729
   D25       -1.04948   0.00001   0.00000   0.00774   0.00773  -1.04175
   D26        1.07469  -0.00002   0.00000   0.00387   0.00388   1.07857
   D27       -1.10012   0.00002   0.00000   0.00653   0.00653  -1.09359
   D28        1.05210   0.00002   0.00000   0.00846   0.00846   1.06056
   D29       -3.10691  -0.00002   0.00000   0.00460   0.00460  -3.10231
   D30        0.97845   0.00003   0.00000   0.00374   0.00374   0.98219
   D31        3.13067   0.00002   0.00000   0.00568   0.00567   3.13634
   D32       -1.02834  -0.00001   0.00000   0.00181   0.00181  -1.02653
         Item               Value     Threshold  Converged?
 Maximum Force            0.005827     0.000450     NO 
 RMS     Force            0.000680     0.000300     NO 
 Maximum Displacement     0.239893     0.001800     NO 
 RMS     Displacement     0.066112     0.001200     NO 
 Predicted change in Energy= 9.147982D-05
 GradGradGradGradGradGradGradGradGradGradGradGradGradGradGradGradGradGrad

                          Input orientation:                          
 ---------------------------------------------------------------------
 Center     Atomic      Atomic             Coordinates (Angstroms)
 Number     Number       Type             X           Y           Z
 ---------------------------------------------------------------------
      1          6           0       -0.640788   -0.287320    0.051098
      2          6           0       -0.754037   -1.545496    0.763960
      3          8           0        0.227299   -2.066758    1.303899
      4          6           0        0.530643    0.403748   -0.160397
      5          6           0        1.372759    2.716085    1.260297
      6          1           0        1.693074    3.197138    2.184690
      7          1           0        2.126007    2.885824    0.492163
      8          1           0        0.430394    3.156148    0.938220
      9          7           0        1.191697    1.276640    1.435612
     10          1           0        2.048244    0.823541    1.731449
     11          1           0        0.472094    1.064490    2.116381
     12          1           0        0.464998    1.320155   -0.728903
     13         35           0        2.146726   -0.510797   -0.698808
     14         35           0       -2.235643    0.725748   -0.311901
     15          7           0       -1.967309   -2.153429    0.811886
     16          1           0       -2.798586   -1.717095    0.458970
     17          1           0       -2.060145   -2.964861    1.395464
 ---------------------------------------------------------------------
                    Distance matrix (angstroms):
                    1          2          3          4          5
     1  C    0.000000
     2  C    1.450518   0.000000
     3  O    2.342965   1.235423   0.000000
     4  C    1.376428   2.510854   2.887834   0.000000
     5  C    3.812739   4.788600   4.918290   2.841555   0.000000
     6  H    4.705377   5.522626   5.534699   3.828016   1.090191
     7  H    4.233029   5.291986   5.365825   3.021874   1.089139
     8  H    3.713743   4.851669   5.239630   2.965251   1.088779
     9  N    2.778642   3.493057   3.482201   1.935505   1.461343
    10  H    3.359834   3.794884   3.442742   2.461386   2.063975
    11  H    2.707636   3.185038   3.244190   2.371440   2.066844
    12  H    2.101223   3.453496   3.957268   1.080421   2.594142
    13  Br   2.895261   3.409504   3.180574   1.933392   3.853555
    14  Br   1.923964   2.917393   4.058939   2.789081   4.410648
    15  N    2.412637   1.357906   2.250754   3.704626   5.921934
    16  H    2.620440   2.074282   3.161036   3.995667   6.139652
    17  H    3.315286   2.029610   2.459141   4.525529   6.638995
                    6          7          8          9         10
     6  H    0.000000
     7  H    1.774541   0.000000
     8  H    1.774747   1.774019   0.000000
     9  N    2.121511   2.086266   2.087949   0.000000
    10  H    2.442445   2.407258   2.947492   1.013159   0.000000
    11  H    2.458382   2.948011   2.401007   1.013056   1.640268
    12  H    3.676991   2.588682   2.480195   2.283662   2.967597
    13  Br   4.719019   3.599427   4.367166   2.943257   2.774222
    14  Br   5.270251   4.933197   3.818036   3.886379   4.747266
    15  N    6.626580   6.500118   5.827225   4.704650   5.082580
    16  H    6.877703   6.740888   5.865534   5.083172   5.618344
    17  H    7.258083   7.250540   6.624093   5.344757   5.598548
                   11         12         13         14         15
    11  H    0.000000
    12  H    2.856757   0.000000
    13  Br   3.634724   2.486262   0.000000
    14  Br   3.652827   2.796546   4.569890   0.000000
    15  N    4.243513   4.511755   4.680355   3.102347   0.000000
    16  H    4.602345   4.613773   5.220318   2.622714   1.002974
    17  H    4.813277   5.408386   5.301526   4.070195   1.003795
                   16         17
    16  H    0.000000
    17  H    1.726046   0.000000
 Stoichiometry    C4H8Br2N2O
 Framework group  C1[X(C4H8Br2N2O)]
 Deg. of freedom    45
 Full point group                 C1      NOp   1
 Largest Abelian subgroup         C1      NOp   1
 Largest concise Abelian subgroup C1      NOp   1
                         Standard orientation:                         
 ---------------------------------------------------------------------
 Center     Atomic      Atomic             Coordinates (Angstroms)
 Number     Number       Type             X           Y           Z
 ---------------------------------------------------------------------
      1          6           0       -0.627726   -0.293907   -0.048742
      2          6           0       -0.766512   -1.519916    0.713914
      3          8           0        0.193658   -2.012960    1.314955
      4          6           0        0.549656    0.391868   -0.243779
      5          6           0        1.329186    2.767877    1.105794
      6          1           0        1.611262    3.290447    2.020053
      7          1           0        2.112113    2.906644    0.361488
      8          1           0        0.399442    3.189550    0.727366
      9          7           0        1.144508    1.336833    1.337161
     10          1           0        1.989579    0.900637    1.686558
     11          1           0        0.398782    1.151984    1.997468
     12          1           0        0.504697    1.282081   -0.854359
     13         35           0        2.187997   -0.539014   -0.676564
     14         35           0       -2.209093    0.695794   -0.519280
     15          7           0       -1.979360   -2.130007    0.740335
     16          1           0       -2.796865   -1.712971    0.335706
     17          1           0       -2.093593   -2.915320    1.355019
 ---------------------------------------------------------------------
 Rotational constants (GHZ):           0.9548211           0.4793859           0.3949432
 Standard basis: def2TZVP (5D, 7F)
 There are   410 symmetry adapted cartesian basis functions of A   symmetry.
 There are   361 symmetry adapted basis functions of A   symmetry.
   361 basis functions,   649 primitive gaussians,   410 cartesian basis functions
    62 alpha electrons       62 beta electrons
       nuclear repulsion energy      1048.9327248930 Hartrees.
 NAtoms=   17 NActive=   17 NUniq=   17 SFac= 1.00D+00 NAtFMM=   60 NAOKFM=F Big=F
 Integral buffers will be    131072 words long.
 Raffenetti 2 integral format.
 Two-electron integral symmetry is turned on.
 Nuclear repulsion after empirical dispersion term =     1048.9221385943 Hartrees.
 ------------------------------------------------------------------------------
 Polarizable Continuum Model (PCM)
 =================================
 Model                : PCM.
 Atomic radii         : UFF (Universal Force Field).
 Polarization charges : Total charges.
 Charge compensation  : None.
 Solution method      : Matrix inversion.
 Cavity type          : Scaled VdW (van der Waals Surface) (Alpha=1.100).
 Cavity algorithm     : GePol (No added spheres)
                        Default sphere list used, NSphG=   17.
                        Lebedev-Laikov grids with approx.  5.0 points / Ang**2.
                        Smoothing algorithm: York/Karplus (Gamma=1.0000).
                        Polarization charges: spherical gaussians, with
                                              point-specific exponents (IZeta= 3).
                        Self-potential: point-specific (ISelfS= 7).
[...]
   xx         0.196919D+03      0.291803D+02      0.324675D+02
   yx         0.110597D+02      0.163887D+01      0.182349D+01
   yy         0.127628D+03      0.189125D+02      0.210430D+02
   zx         0.113852D+02      0.168711D+01      0.187716D+01
   zy         0.129004D+02      0.191164D+01      0.212699D+01
   zz         0.154530D+03      0.228990D+02      0.254786D+02

 ----------------------------------------------------------------------
 1\1\GINC-NODE-SW-154\Freq\RwB97XD\def2TZVP\C4H8Br2N2O1\TLA25\12-Feb-20
 21\0\\#N Geom=AllCheck Guess=TCheck SCRF=Check GenChk RwB97XD/def2TZVP
  Freq\\0_iteration/TS-347-0.out\\0,1\C,-0.8133473681,-0.275617953,0.06
 87948779\C,-0.6847693967,-1.5411803051,0.7717401838\O,0.3963322559,-1.
 8970517983,1.2513170187\C,0.2255288196,0.5704410192,-0.2258621774\C,1.
 7849185374,2.5991075982,1.2953140872\H,2.0047971056,3.0424475714,2.267
 8446906\H,2.711635913,2.2398153877,0.8522288071\H,1.3560604742,3.36172
 90706,0.6467961415\N,0.8465289554,1.4865395462,1.4069346519\H,1.215180
 2721,0.7189442997,1.9571667047\H,-0.0318540821,1.7746388001,1.82134125
 05\H,0.000080315,1.4857486604,-0.7523655619\Br,1.9186723386,-0.0980432
 791,-0.8558250041\Br,-2.5595072485,0.4923407288,-0.1577680112\N,-1.787
 864676,-2.3180431355,0.9042835736\H,-2.6522026741,-2.1072406394,0.4410
 29657\H,-1.6827595414,-3.2108155718,1.35110911\\Version=ES64L-G16RevA.
 03\State=1-A\HF=-5490.3976858\RMSD=2.147e-09\RMSF=5.393e-06\ZeroPoint=
 0.1271544\Thermal=0.138902\Dipole=-0.1926097,1.9834199,0.9271082\Dipol
 eDeriv=-0.1751437,-1.068543,0.0313901,-1.2486233,-1.6608215,-0.0815347
 ,0.4382349,0.572066,-0.5861588,1.846254,0.3182468,0.2424572,0.943535,2
 .6236197,-0.6112062,0.1400039,-1.0202129,0.8235183,-1.3981025,0.462871
 4,-0.3298518,0.1993126,-1.2413038,0.3541022,-0.4338132,0.4558329,-0.81
 08953,2.2967878,1.2409155,-0.1940079,1.1362305,1.6360307,0.8398983,0.4
 92041,1.4100129,1.1812451,0.3393771,0.2719524,0.0604574,0.2053829,0.45
 53832,0.0301177,-0.2772264,-0.3694556,0.0280087,-0.0045622,-0.1553202,
 -0.0686039,-0.1757312,-0.12498,-0.1188384,-0.0463527,-0.0857222,-0.081
 9098,-0.0404953,0.0039257,0.057077,0.0764976,0.0351671,-0.031489,0.093
 5545,0.0121238,0.0943206,0.0230424,0.0597607,-0.0837008,-0.0156257,-0.
 0390575,0.0563863,-0.0309244,0.1424196,0.0322848,-0.9003538,-0.633994,
 -0.0839866,-0.6329982,-1.0501341,-0.4061135,-0.7169129,-0.9587141,-0.8
 390721,0.1950716,-0.0214324,0.0048961,-0.0504376,0.1461385,0.0219509,0
 .0067443,0.0434263,0.2812589,0.1552156,-0.0693762,-0.0035611,-0.003573
 ,0.1727703,-0.0174449,0.0901645,-0.0002162,0.2068813,-0.054966,0.04457
 44,-0.0001542,0.0350277,0.002006,-0.0136758,-0.0081726,-0.1267661,0.01
 95865,-0.7440046,0.1460586,0.3490425,0.1567085,-0.1357726,-0.166169,0.
 0755011,-0.2215858,-0.239161,-0.6644168,0.0639568,-0.0539404,0.1685279
 ,-0.2734651,0.0770211,-0.0254724,-0.058114,-0.1409134,-1.3737831,-0.68
 44662,0.1604549,-0.7621706,-1.1420672,-0.0350317,0.3538873,0.1539268,-
 0.6340555,0.2972554,0.0065243,-0.0280122,-0.0324894,0.3114599,0.056394
 4,-0.0686708,0.0388689,0.3171976,0.2028241,0.0143453,-0.0599561,0.0004
 263,0.2850265,0.0456322,-0.082586,0.0121096,0.347864\Polar=195.491939,
 16.7672872,161.3670734,1.1843018,3.4241017,122.2177276\Quadrupole=-1.7
 036225,3.7761784,-2.072556,10.2416785,0.8727203,4.819825\PG=C01 [X(C4H
 8Br2N2O1)]\NImag=1\\0.48343586,0.11183817,0.48127226,-0.02855187,-0.17
 538868,0.16512907,-0.08695620,-0.01798498,0.01128680,0.80139682,0.0350
 9676,-0.16880947,0.04568826,0.00325969,0.54559576,-0.01500607,0.058199
 83,-0.09127750,0.14982754,-0.17591361,0.34300860,-0.00081921,0.0461353
 3,-0.03586964,-0.45836770,0.11032088,-0.16045277,0.57447914,0.02443832
 ,-0.02293816,0.03169650,0.12720306,-0.13964301,0.06355643,-0.13935134,
 0.13230820,-0.01943972,0.02891037,-0.00325148,-0.16770632,0.06323980,-
 0.15748691,0.21468924,-0.08764188,0.14229543,-0.23714168,-0.09947917,0
 .04247201,0.02014866,-0.05877518,0.02723472,-0.02377077,0.01493337,-0.
 00957014,0.41223533,-0.14126378,-0.17192218,0.06022203,-0.01854109,-0.
 05408347,0.01769552,-0.01303139,0.01013049,-0.00827986,0.03341184,0.51
 777585,0.07791049,0.09547933,-0.08708770,0.01765157,-0.01405532,0.0008
 5061,-0.00659728,0.00380738,-0.00448959,-0.09383414,-0.27032723,0.1958
 4955,0.00174998,0.00297960,-0.00120159,-0.00037879,-0.00225385,0.00038
 366,-0.00014439,0.00114563,0.00001260,-0.00454471,-0.00896976,-0.00858
 824,0.56258374,0.00132335,0.00312899,-0.00130695,0.00013381,-0.0023554
 6,0.00051422,-0.00050351,0.00095018,-0.00039881,-0.00602309,-0.0101582
 5,-0.00654314,-0.06338129,0.53872595,-0.00717136,-0.01262957,-0.002314
 44,-0.00207600,0.00874957,-0.00438717,0.00317293,-0.00145544,0.0015751
 8,0.00199392,0.00607065,0.01978345,0.00323099,0.00120415,0.58875903,-0
 .00170867,-0.00349038,-0.00034629,-0.00042597,0.00239765,-0.00115222,0
 .00077104,-0.00057337,0.00037768,0.00162711,0.00385565,0.00645348,-0.0
 5691163,-0.01612634,-0.04215007,0.06068555,-0.00244316,-0.00440992,0.0
 0013584,-0.00058279,0.00347098,-0.00145390,0.00107348,-0.00078126,0.00
 050589,0.00302094,0.00504027,0.00718074,-0.01684122,-0.08680350,-0.090
 86877,0.02700851,0.09716741,0.00042943,0.00054587,0.00011188,0.0001419
 4,-0.00033092,0.00011100,-0.00018746,0.00000018,-0.00007985,0.00032474
 ,0.00004151,-0.00022032,-0.04421973,-0.09347818,-0.26983761,0.04872147
 ,0.10230852,0.28392644,-0.00008373,-0.00044516,-0.00016883,-0.00001230
 ,0.00025796,-0.00006472,0.00009448,-0.00011042,0.00000763,-0.00021579,
 0.00142841,0.00154759,-0.24328712,0.07826177,0.09261654,0.00730522,-0.
 00196205,-0.00287391,0.26837042,-0.00000577,-0.00011635,0.00022485,-0.
 00005451,0.00012890,0.00000585,0.00009559,-0.00004338,-0.00002028,0.00
 030536,0.00092843,0.00061970,0.08816901,-0.08534720,-0.04069204,0.0100
 5977,-0.00372549,-0.00323848,-0.08110004,0.08934620,0.00024281,0.00040
 533,-0.00007397,0.00002720,-0.00034017,0.00015013,-0.00007095,0.000120
 85,-0.00010652,-0.00075949,-0.00066918,-0.00080455,0.09500916,-0.03763
 996,-0.09457276,0.02460735,-0.00985109,-0.01001163,-0.10463183,0.04113
 584,0.09589097,-0.00002491,0.00023416,0.00021054,0.00021036,-0.0001177
 1,0.00010455,-0.00016378,-0.00012499,-0.00011624,0.00063394,0.00027023
 ,0.00072563,-0.09927632,0.08276774,-0.07077829,-0.00209804,0.00377571,
 -0.00195114,-0.00864145,0.01697398,-0.01757994,0.10119716,-0.00036971,
 -0.00036812,0.00017061,0.00022476,0.00045205,-0.00001909,-0.00005110,-
 0.00026638,-0.00006065,0.00125316,0.00131896,0.00148431,0.07456287,-0.
 17545727,0.10891152,-0.00519356,0.01049679,-0.00744522,0.00353201,-0.0
 0606377,0.00584198,-0.07724056,0.19814862,0.00045393,0.00102159,-0.000
 33609,0.00012336,-0.00083759,0.00021336,-0.00023171,0.00026248,-0.0001
 0319,-0.00069762,-0.00183332,-0.00060704,-0.06690933,0.11270399,-0.147
 51711,-0.01219530,0.02022922,-0.01540797,0.00491044,-0.01052862,0.0094
 6107,0.07249081,-0.12396662,0.15257815,-0.01668453,-0.03345374,-0.0084
 8520,-0.00343002,0.01950626,-0.00881440,0.00661447,-0.00460887,0.00263
 067,-0.01261134,0.02515974,0.02363417,-0.15321218,-0.06103077,-0.00307
 602,-0.01031393,-0.01328607,0.00048909,-0.02414952,-0.03104766,0.00298
 538,0.01032954,0.00815801,0.00122043,0.66339966,-0.02003835,-0.0279087
 9,-0.01001840,-0.00288897,0.01748226,-0.00928169,0.00552715,-0.0034724
 2,0.00240342,0.01809912,0.00202445,0.04534397,-0.05727811,-0.17380433,
 -0.00250425,-0.01830031,-0.01991682,0.00202808,0.00379554,0.00903743,0
 .00096153,-0.02347256,-0.02594035,0.00225234,-0.11704925,0.58403657,-0
 .01773800,-0.02802519,0.01187685,-0.00314103,0.02114474,-0.00637383,0.
 00660016,-0.00615478,0.00327517,0.02964430,0.05104415,0.01328911,0.023
 67056,0.02978967,-0.08455974,-0.02318962,-0.02656024,0.00963746,0.0084
 2023,0.01241030,-0.00012640,0.01598910,0.01558868,0.00087377,-0.092907
 61,-0.16272435,0.33782100,-0.00074689,-0.00042884,0.00039801,-0.001378
 05,-0.00038329,-0.00060889,0.00054241,0.00046440,0.00063140,-0.0003433
 1,0.00158167,-0.00178494,0.01143937,-0.02196951,0.01581419,0.00039704,
 0.00026017,-0.00031419,0.00048828,0.00045632,0.00041853,-0.00306910,-0
 .00445140,0.00047841,-0.11586166,0.11168747,-0.06979692,0.11908433,-0.
 00153145,-0.00272831,0.00244765,-0.00309510,0.00242128,-0.00162090,0.0
 0274008,-0.00035687,0.00162728,0.00098358,0.01005299,-0.00088569,0.009
 73347,-0.01988256,0.01468775,0.00067380,0.00025956,-0.00036659,0.00013
 469,0.00114691,0.00005340,-0.00399019,-0.00189885,-0.00059258,0.103398
 63,-0.26220332,0.15080726,-0.11148087,0.28162401,-0.00043216,-0.001253
 49,0.00170553,-0.00169745,0.00003281,-0.00035938,0.00126171,0.00054120
 ,0.00025163,-0.00391632,0.00844839,-0.00819514,-0.00120411,-0.00305668
 ,-0.00183955,0.00020369,-0.00062073,0.00073692,-0.00005901,0.00049000,
 -0.00000564,0.00046553,0.00036608,0.00065500,-0.07979395,0.18241317,-0
 .15167319,0.07621932,-0.17052557,0.15225007,-0.00046331,-0.00083261,0.
 00145262,-0.00002297,0.00063890,0.00002816,0.00010080,-0.00033393,0.00
 001663,0.00671387,0.00170860,0.00140809,-0.01834343,0.00621656,0.00935
 942,0.00041576,0.00051242,-0.00053380,-0.00055498,-0.00398713,-0.00021
 527,0.00087907,0.00009198,0.00014426,-0.33601801,0.09546678,0.12604438
 ,-0.01099839,0.00232661,0.00811271,0.35807092,-0.00069346,0.00060720,0
 .00111836,0.00016664,-0.00105091,0.00036984,-0.00033461,0.00014987,-0.
 00011638,0.00471203,-0.00099622,-0.00117761,-0.02998871,0.00904993,0.0
 1303155,0.00018869,0.00058722,-0.00036155,-0.00393479,-0.00454639,0.00
 040578,0.00057013,0.00053220,0.00039737,0.10557604,-0.09305354,-0.0356
 9857,0.02459156,-0.00709602,-0.01514471,-0.10084303,0.09628316,-0.0003
 1094,0.00218790,0.00215658,0.00025391,-0.00163132,0.00097450,-0.000429
 69,0.00055462,-0.00031113,0.00923910,-0.00282692,-0.00425539,-0.002335
 11,-0.00260513,-0.00158150,-0.00063420,0.00026512,0.00066645,0.0003849
 4,0.00009658,0.00037954,0.00052004,-0.00006179,-0.00013042,0.15777515,
 -0.04103096,-0.10195194,-0.02155048,0.00667408,0.00826702,-0.14328052,
 0.03939892,0.09998909,0.00541631,-0.02170463,0.01241615,-0.00458260,0.
 00091111,0.00053575,0.00084753,-0.00006087,0.00009042,-0.05229590,0.05
 909266,-0.03231479,-0.00002829,0.00041973,-0.00053194,0.00001401,-0.00
 027032,0.00018890,-0.00003934,0.00000150,0.00001159,0.00005202,-0.0003
 8140,0.00011378,-0.00158353,0.00099781,-0.00634245,-0.00002800,-0.0005
 8768,-0.00051426,-0.00004780,-0.00010453,-0.00016971,0.06803412,0.0052
 7072,-0.01298712,0.00954315,-0.00328803,0.00235244,0.00211386,0.000650
 30,0.00014780,-0.00024510,0.04910334,-0.27100042,0.13419794,0.00076278
 ,0.00206349,-0.00012851,0.00014434,-0.00038727,0.00027817,-0.00010158,
 -0.00003065,0.00002200,0.00021562,-0.00073698,0.00048694,-0.00483148,0
 .00448365,-0.00953599,-0.00050308,-0.00111724,-0.00168670,0.00008914,0
 .00020303,0.00020520,-0.05213967,0.27967898,-0.00521684,0.00005616,0.0
 0327984,-0.00018763,0.00482646,0.00351580,0.00113689,-0.00062975,0.000
 16003,-0.02409991,0.13795904,-0.10751525,0.00045148,0.00090846,-0.0010
 4477,-0.00025389,-0.00063593,0.00021481,-0.00012675,-0.00014463,0.0000
 3202,-0.00013500,-0.00054731,0.00014298,-0.00802191,0.00447947,-0.0160
 2633,-0.00016307,-0.00205929,-0.00190401,-0.00019462,0.00023373,-0.000
 58235,0.02838740,-0.13394160,0.11868462,-0.02813803,0.00017037,0.01037
 147,-0.00279387,0.00648415,-0.00673652,0.00196455,-0.00269878,0.003351
 78,-0.09053782,0.03014559,0.01165698,-0.00087336,-0.00067050,0.0018260
 9,0.00089618,0.00072563,-0.00023160,0.00070074,0.00007379,-0.00023353,
 0.00005617,0.00006596,-0.00013596,-0.00260194,0.00885877,0.00834570,-0
 .00012840,-0.00001440,0.00023929,0.00113563,0.00042687,0.00099231,-0.0
 1396023,0.00407873,0.00896671,0.13962549,-0.00392844,0.00698976,0.0008
 1143,0.00141407,-0.00124120,0.00303146,-0.00458697,-0.00150676,0.00185
 103,0.02926347,-0.04242817,-0.00308437,0.00073108,-0.00065168,-0.00242
 212,-0.00012416,-0.00022437,-0.00006137,0.00029007,-0.00067616,-0.0005
 4291,0.00012050,-0.00012548,0.00020399,0.00737476,-0.00753304,-0.00849
 107,0.00005962,0.00012858,-0.00006937,-0.00106869,-0.00077340,-0.00155
 676,0.01800938,-0.00221112,-0.00884181,-0.04628388,0.04958529,0.005522
 74,-0.00511033,0.00304841,-0.00056074,0.00214560,-0.00224992,0.0042822
 0,0.00132712,-0.00227320,0.02653470,-0.00066896,-0.02300468,0.00141520
 ,-0.00016064,-0.00282643,-0.00056730,-0.00067830,0.00013781,0.00002188
 ,-0.00030581,-0.00020004,0.00009648,-0.00022272,0.00014792,0.01176376,
 -0.01499589,-0.01434796,0.00026830,-0.00006062,0.00010774,-0.00190958,
 -0.00197462,-0.00303573,-0.00293794,0.00038762,0.00316211,-0.04450575,
 0.01990186,0.04096945,-0.10978785,0.03782363,-0.01359700,-0.01992000,-
 0.00245904,0.00410575,-0.00082128,0.00602914,-0.00452190,-0.03033223,0
 .01665467,0.00072457,0.00055089,0.00016735,-0.00054270,-0.00016921,-0.
 00030470,-0.00003378,0.00005946,0.00005013,0.00010871,-0.00004736,-0.0
 0004101,0.00007712,-0.00040961,-0.00185601,-0.00274813,0.00019881,-0.0
 0002554,0.00055730,-0.00069833,-0.00044057,-0.00071505,-0.00171170,0.0
 0061374,-0.00020204,-0.00398317,-0.00064517,0.00040597,0.16366656,0.03
 723818,-0.04166477,0.01400255,0.02075465,-0.00076598,-0.00477681,0.003
 00306,-0.00480975,0.00583424,-0.00734261,-0.00018100,-0.00014553,-0.00
 000225,-0.00005088,0.00010979,0.00006406,0.00006324,0.00001849,-0.0000
 0292,-0.00002599,0.00000061,0.00000416,0.00001917,-0.00000921,0.000367
 67,0.00053142,0.00070041,-0.00004297,-0.00008619,-0.00003527,0.0002317
 3,-0.00009695,-0.00003986,-0.00206573,0.00073069,-0.00107707,0.0002955
 9,0.00064101,0.00076551,-0.05509337,0.05369285,-0.00956498,0.01089085,
 -0.00935908,-0.01088792,0.00385485,-0.00318185,0.00001508,0.00366868,0
 .00031597,0.00243028,0.00230239,0.00620376,0.00049540,0.00019160,-0.00
 070891,-0.00017069,-0.00032696,0.00004421,-0.00001050,-0.00004729,0.00
 002930,-0.00002341,-0.00006651,0.00008972,-0.00156978,-0.00164258,-0.0
 0292075,0.00006578,-0.00021525,0.00009173,-0.00043862,-0.00035839,-0.0
 0035734,0.00040839,-0.00172611,-0.00143456,0.00498118,-0.00004014,-0.0
 0006983,0.01638106,-0.01877127,0.01210622,-0.00374076,-0.02107583,0.01
 055877,-0.23356909,-0.09452057,0.00443732,-0.10137269,-0.02627907,-0.0
 1985008,0.01115266,0.01018386,0.00146158,0.00071775,0.00046077,-0.0018
 4667,-0.00052791,-0.00075027,0.00005755,-0.00003954,0.00000829,0.00008
 560,-0.00003372,-0.00017088,0.00017239,-0.00386540,-0.00392326,-0.0032
 8214,0.00039505,0.00069417,0.00054856,-0.00017074,0.00011684,0.0002920
 8,0.00006081,0.00006613,-0.00047789,-0.00152814,-0.00064745,0.00013902
 ,0.00256080,0.00032518,-0.00143921,0.75880651,-0.04038779,-0.03743212,
 0.01893450,-0.10428446,-0.19845181,0.05620011,-0.00659701,0.02767634,-
 0.00764262,0.01613683,0.00408931,0.00762568,0.00065173,0.00060707,-0.0
 0212791,-0.00060652,-0.00086548,0.00005729,-0.00004796,-0.00001462,0.0
 0010170,0.00001147,-0.00011423,0.00021137,-0.00437107,-0.00397938,-0.0
 0441649,0.00016644,-0.00025308,0.00013034,-0.00018438,0.00021291,0.000
 42302,-0.00181594,-0.00102296,-0.00048573,-0.00201658,0.00004640,-0.00
 029175,-0.00136908,-0.00595934,0.00160225,0.04732416,0.66750771,0.0196
 4692,0.02391464,0.00318561,-0.00364918,0.04677411,-0.07906257,-0.02769
 763,-0.01087349,0.01817709,-0.00776788,-0.00008282,-0.00090961,-0.0002
 6773,-0.00018709,0.00117877,0.00032791,0.00042540,-0.00003387,0.000028
 95,-0.00000291,-0.00004836,-0.00001789,0.00003637,-0.00007797,0.002409
 98,0.00248748,0.00166520,-0.00008270,0.00006822,-0.00009210,0.00001377
 ,-0.00013620,-0.00025260,0.00073336,0.00021719,-0.00040281,0.00108577,
 -0.00059263,0.00040387,-0.00001813,0.00231575,-0.00036099,0.23131025,-
 0.31699565,0.26124129,0.00112785,0.00187559,-0.00025121,-0.01875941,0.
 00962797,-0.01071256,-0.00171294,-0.00458872,-0.00036015,-0.00184445,-
 0.00063069,-0.00045661,-0.00005334,-0.00006035,0.00027989,0.00007616,0
 .00010478,-0.00000831,0.00000595,0.00000153,-0.00001007,-0.00000676,0.
 00000908,-0.00002212,0.00061015,0.00057121,0.00053799,0.00000623,0.000
 08802,0.00001845,0.00001364,-0.00002718,-0.00005606,0.00010263,0.00002
 294,-0.00003966,0.00022643,-0.00004368,0.00012489,0.00059360,0.0010500
 0,-0.00035177,-0.35792282,0.06348518,-0.17595131,0.37332278,-0.0022847
 1,-0.00240513,0.00119995,-0.00670951,0.01272696,-0.01689579,-0.0079437
 4,-0.00023591,0.00233808,0.00075970,0.00042199,-0.00009231,0.00001155,
 0.00000624,-0.00007260,-0.00001654,-0.00002096,0.00000581,0.00000177,0
 .00000133,-0.00000060,-0.00000158,-0.00000692,0.00000637,-0.00016987,-
 0.00012174,-0.00011393,0.00000351,0.00000876,0.00000007,-0.00004576,-0
 .00001265,-0.00003159,-0.00001068,-0.00002087,0.00003717,0.00022440,-0
 .00011507,-0.00007595,0.00110144,-0.00223772,0.00071221,0.05888771,-0.
 07747935,0.06720393,-0.06940664,0.06909335,0.00002359,-0.00007614,-0.0
 0028103,0.00666282,-0.00713362,-0.00227945,0.00172410,0.00335809,0.005
 83113,0.00010006,0.00003769,-0.00027549,-0.00000663,0.00001970,-0.0000
 5182,-0.00001435,-0.00001667,-0.00000338,0.00000115,-0.00000350,0.0000
 0269,0.00000080,0.00000412,0.00000429,-0.00009909,-0.00009932,-0.00016
 933,-0.00003014,-0.00010575,-0.00001675,0.00000103,0.00000067,0.000025
 85,0.00007282,0.00007128,0.00009410,-0.00005020,-0.00006079,0.00000568
 ,-0.00008482,0.00150185,-0.00053068,-0.18361486,0.06924966,-0.10805564
 ,0.18320860,-0.06271215,0.11291152,-0.00543424,-0.00216151,-0.00069474
 ,0.00884115,-0.02999168,0.01689070,0.00175835,0.00451644,-0.00024349,0
 .00112643,-0.00105621,0.00040186,0.00001184,0.00001428,-0.00012092,-0.
 00003270,-0.00004106,0.00000078,-0.00000080,-0.00000018,0.00000475,0.0
 0000319,0.00000178,0.00000709,-0.00021214,-0.00019703,-0.00010651,0.00
 000228,-0.00004781,-0.00000929,-0.00001172,0.00001808,0.00002425,-0.00
 025005,-0.00015395,0.00017674,-0.00006022,0.00006547,-0.00009384,0.000
 25064,0.00121557,-0.00032028,-0.07092277,0.03390500,-0.04010448,0.0042
 1430,0.02559896,-0.00789488,0.06071646,-0.00225887,0.00169222,0.000518
 34,0.00427278,-0.01822934,0.00827467,0.00285380,0.00269103,-0.00230453
 ,-0.00036269,-0.00101306,0.00057217,-0.00003253,-0.00002072,0.00013625
 ,0.00003869,0.00004961,-0.00000163,0.00000271,0.00000082,-0.00000509,0
 .00000389,0.00001055,-0.00000773,0.00030768,0.00033795,0.00023538,-0.0
 0001121,-0.00001963,-0.00002953,0.00001283,0.00000058,-0.00002109,-0.0
 0029075,-0.00014545,-0.00013739,0.00013428,0.00009540,0.00001786,-0.00
 020560,0.00020019,-0.00002833,0.02930022,-0.37456736,0.18542773,-0.002
 07906,0.00039766,-0.00403512,-0.03168616,0.38851955,-0.00079796,0.0008
 7153,0.00348750,0.00393113,0.00378636,-0.00216543,-0.00134519,-0.00213
 821,-0.00377978,0.00067165,0.00086690,0.00138830,0.00006342,0.00004480
 ,-0.00005462,-0.00001765,-0.00003815,0.00000764,-0.00000380,0.00000045
 ,0.00000415,-0.00000156,-0.00001376,0.00001353,-0.00014068,-0.00007202
 ,-0.00028909,0.00003738,0.00006659,0.00002012,-0.00000864,0.00001182,-
 0.00000063,-0.00014747,-0.00025933,-0.00037623,0.00007629,-0.00003643,
 0.00002482,0.00010306,-0.00039417,0.00004308,-0.03855227,0.17742422,-0
 .09655531,0.00405002,0.00849135,-0.00721169,0.03208226,-0.18861197,0.1
 0544365\\0.00000662,0.00000660,-0.00000332,0.00000457,-0.00000681,0.00
 000170,0.00000283,0.00000173,-0.00000705,-0.00001971,0.00000639,0.0000
 0795,0.00000306,-0.00000365,-0.00000430,0.00000256,-0.00000331,0.00000
 045,-0.00000132,0.00000448,-0.00000456,-0.00000493,0.00000188,0.000004
 47,-0.00000238,0.00000235,0.00000473,0.00000137,-0.00000360,-0.0000014
 2,0.00000174,-0.00000593,0.00000493,-0.00000807,0.00000247,0.00000120,
 0.00000508,0.00000214,-0.00001224,-0.00000301,-0.00000120,0.00001012,0
 .00000279,0.00000123,-0.00000324,0.00000060,-0.00000137,0.00000434,0.0
 0000821,-0.00000339,-0.00000375\\\@


 ASKING DUMB QUESTIONS IS EASIER THAN CORECTING DUMB MISTAKES.
 Job cpu time:       0 days  2 hours 54 minutes 32.7 seconds.
 Elapsed time:       0 days  0 hours 10 minutes 55.9 seconds.
 File lengths (MBytes):  RWF=    323 Int=      0 D2E=      0 Chk=     20 Scr=      1
 Normal termination of Gaussian 16 at Fri Feb 12 15:07:15 2021.
