 Entering Gaussian System, Link 0=g16
 Initial command:
 /apps/gaussian/16/A.03/g16/l1.exe "/beegfs/scratch/user/q/tla25/Gau-38252.inp" -scrdir="/beegfs/scratch/user/q/tla25/"
 Entering Link 1 = /apps/gaussian/16/A.03/g16/l1.exe PID=     38253.
  
 Copyright (c) 1988,1990,1992,1993,1995,1998,2003,2009,2016,
            Gaussian, Inc.  All Rights Reserved.
  
 This is part of the Gaussian(R) 16 program.  It is based on
 the Gaussian(R) 09 system (copyright 2009, Gaussian, Inc.),
 the Gaussian(R) 03 system (copyright 2003, Gaussian, Inc.),
 the Gaussian(R) 98 system (copyright 1998, Gaussian, Inc.),
 the Gaussian(R) 94 system (copyright 1995, Gaussian, Inc.),
 the Gaussian 92(TM) system (copyright 1992, Gaussian, Inc.),
 the Gaussian 90(TM) system (copyright 1990, Gaussian, Inc.),
 the Gaussian 88(TM) system (copyright 1988, Gaussian, Inc.),
 the Gaussian 86(TM) system (copyright 1986, Carnegie Mellon
 University), and the Gaussian 82(TM) system (copyright 1983,
 Carnegie Mellon University). Gaussian is a federally registered
 trademark of Gaussian, Inc.
  
 This software contains proprietary and confidential information,
 including trade secrets, belonging to Gaussian, Inc.
  
 This software is provided under written license and may be
 used, copied, transmitted, or stored only in accord with that
 written license.
  
 The following legend is applicable only to US Government
 contracts under FAR:
  
                    RESTRICTED RIGHTS LEGEND
  
 Use, reproduction and disclosure by the US Government is
 subject to restrictions as set forth in subparagraphs (a)
 and (c) of the Commercial Computer Software - Restricted
 Rights clause in FAR 52.227-19.
  
 Gaussian, Inc.
 340 Quinnipiac St., Bldg. 40, Wallingford CT 06492
  
  
 ---------------------------------------------------------------
 Warning -- This program may not be used in any manner that
 competes with the business of Gaussian, Inc. or will provide
 assistance to any competitor of Gaussian, Inc.  The licensee
 of this program is prohibited from giving any competitor of
 Gaussian, Inc. access to this program.  By using this program,
 the user acknowledges that Gaussian, Inc. is engaged in the
 business of creating and licensing software in the field of
 computational chemistry and represents and warrants to the
 licensee that it is not a competitor of Gaussian, Inc. and that
 it will not use this program in any manner prohibited above.
 ---------------------------------------------------------------
  

 Cite this work as:
 Gaussian 16, Revision A.03,
 M. J. Frisch, G. W. Trucks, H. B. Schlegel, G. E. Scuseria, 
 M. A. Robb, J. R. Cheeseman, G. Scalmani, V. Barone, 
 G. A. Petersson, H. Nakatsuji, X. Li, M. Caricato, A. V. Marenich, 
 J. Bloino, B. G. Janesko, R. Gomperts, B. Mennucci, H. P. Hratchian, 
 J. V. Ortiz, A. F. Izmaylov, J. L. Sonnenberg, D. Williams-Young, 
 F. Ding, F. Lipparini, F. Egidi, J. Goings, B. Peng, A. Petrone, 
 T. Henderson, D. Ranasinghe, V. G. Zakrzewski, J. Gao, N. Rega, 
 G. Zheng, W. Liang, M. Hada, M. Ehara, K. Toyota, R. Fukuda, 
 J. Hasegawa, M. Ishida, T. Nakajima, Y. Honda, O. Kitao, H. Nakai, 
 T. Vreven, K. Throssell, J. A. Montgomery, Jr., J. E. Peralta, 
 F. Ogliaro, M. J. Bearpark, J. J. Heyd, E. N. Brothers, K. N. Kudin, 
 V. N. Staroverov, T. A. Keith, R. Kobayashi, J. Normand, 
 K. Raghavachari, A. P. Rendell, J. C. Burant, S. S. Iyengar, 
 J. Tomasi, M. Cossi, J. M. Millam, M. Klene, C. Adamo, R. Cammi, 
 J. W. Ochterski, R. L. Martin, K. Morokuma, O. Farkas, 
 J. B. Foresman, and D. J. Fox, Gaussian, Inc., Wallingford CT, 2016.
 
 ******************************************
 Gaussian 16:  ES64L-G16RevA.03 25-Dec-2016
                31-Jan-2021 
 ******************************************
 %nprocshared=16
 Will use up to   16 processors via shared memory.
 %mem=48GB
 ----------------------------------------------------------------------
 # wB97XD def2tzvp, opt=(ts, noeigen, calcfc, maxcycles=70, maxstep=5),
  freq=noraman, scrf=(iefpcm, solvent=water)
 ----------------------------------------------------------------------
 1/5=1,6=70,8=5,10=4,11=1,18=20,26=3,38=1/1,3;
 2/9=110,12=2,17=6,18=5,40=1/2;
 3/5=44,7=101,11=2,25=1,30=1,70=2201,71=2,72=1,74=-58,140=1/1,2,3;
 4//1;
 5/5=2,38=5,53=1/2;
 8/6=4,10=90,11=11/1;
 11/6=1,8=1,9=11,15=111,16=1/1,2,10;
 10/6=1,13=1/2;
 6/7=2,8=2,9=2,10=2,28=1/1;
 7/10=1,18=20,25=1/1,2,3,16;
 1/5=1,6=70,8=5,10=4,11=1,18=20,26=3/3(2);
 2/9=110/2;
 99//99;
 2/9=110/2;
 3/5=44,7=101,11=2,25=1,30=1,70=2205,71=1,72=1,74=-58/1,2,3;
 4/5=5,16=3,69=1/1;
 5/5=2,38=5,53=1/2;
 7//1,2,3,16;
 1/5=1,6=70,8=5,11=1,18=20,26=3/3(-5);
 2/9=110/2;
 6/7=2,8=2,9=2,10=2,19=2,28=1/1;
 99/9=1/99;
 -----------------------
 2_iteration/TS-45-2.out
 -----------------------
 Symbolic Z-matrix:
 Charge =  0 Multiplicity = 1
 C                    -0.86334  -0.44706  -0.30798 
 C                    -2.06372  -1.22423  -0.45354 
 O                    -2.06695  -2.47678  -0.39367 
 C                     0.33102  -1.20231  -0.27368 
 C                     1.41528  -3.18455   1.42951 
 H                     1.24401  -3.8551    2.27215 
 H                     1.47545  -3.7744    0.51497 
 H                     2.35903  -2.66103   1.57142 
 N                     0.34079  -2.20915   1.28638 
 H                    -0.56882  -2.645     1.143 
 H                     0.28188  -1.5712    2.07071 
 C                     1.67349  -0.55651  -0.27124 
 C                     2.06634   0.32616   0.73241 
 C                     3.32096   0.91141   0.70674 
 C                     4.20264   0.62774  -0.32854 
 C                     3.8241   -0.25439  -1.32896 
 C                     2.57072  -0.8493   -1.29264 
 H                     1.38152   0.56588   1.53654 
 H                     3.61172   1.59389   1.4954 
 H                     5.18216   1.08834  -0.35032 
 H                     4.50713  -0.48746  -2.13605 
 H                     2.28224  -1.54602  -2.07103 
 H                     0.30969  -2.10255  -0.88273 
 C                    -0.91168   1.01263  -0.0535 
 C                    -1.60295   1.5388    1.04322 
 C                    -1.64952   2.90402   1.28554 
 C                    -0.99058   3.78543   0.44009 
 C                    -0.2982    3.28595  -0.65479 
 C                    -0.27081   1.92195  -0.90085 
 H                    -2.10449   0.85811   1.72186 
 H                    -2.19131   3.27919   2.14541 
 H                    -1.01848   4.85098   0.63068 
 H                     0.21474   3.96348  -1.32677 
 H                     0.26394   1.54349  -1.76376 
 N                    -3.24374  -0.57347  -0.67614 
 C                    -4.51384  -1.2545   -0.63303 
 H                    -3.2425    0.42958  -0.64828 
 H                    -4.69189  -1.73022   0.33602 
 H                    -5.30412  -0.52782  -0.81278 
 H                    -4.57521  -2.02698  -1.40129 
 
 Add virtual bond connecting atoms N9         and C4         Dist= 3.51D+00.

 GradGradGradGradGradGradGradGradGradGradGradGradGradGradGradGradGradGrad
 Berny optimization.
 Initialization pass.
                           ----------------------------
                           !    Initial Parameters    !
                           ! (Angstroms and Degrees)  !
 --------------------------                            --------------------------
 ! Name  Definition              Value          Derivative Info.                !
 --------------------------------------------------------------------------------
 ! R1    R(1,2)                  1.4374         calculate D2E/DX2 analytically  !
 ! R2    R(1,4)                  1.4135         calculate D2E/DX2 analytically  !
 ! R3    R(1,24)                 1.4825         calculate D2E/DX2 analytically  !
 ! R4    R(2,3)                  1.254          calculate D2E/DX2 analytically  !
 ! R5    R(2,35)                 1.3658         calculate D2E/DX2 analytically  !
 ! R6    R(4,9)                  1.8568         calculate D2E/DX2 analytically  !
 ! R7    R(4,12)                 1.4897         calculate D2E/DX2 analytically  !
 ! R8    R(4,23)                 1.0871         calculate D2E/DX2 analytically  !
 ! R9    R(5,6)                  1.0904         calculate D2E/DX2 analytically  !
 ! R10   R(5,7)                  1.0899         calculate D2E/DX2 analytically  !
 ! R11   R(5,8)                  1.0885         calculate D2E/DX2 analytically  !
 ! R12   R(5,9)                  1.4582         calculate D2E/DX2 analytically  !
 ! R13   R(9,10)                 1.0188         calculate D2E/DX2 analytically  !
 ! R14   R(9,11)                 1.0127         calculate D2E/DX2 analytically  !
 ! R15   R(12,13)                1.3931         calculate D2E/DX2 analytically  !
 ! R16   R(12,17)                1.3907         calculate D2E/DX2 analytically  !
 ! R17   R(13,14)                1.3846         calculate D2E/DX2 analytically  !
 ! R18   R(13,18)                1.0831         calculate D2E/DX2 analytically  !
 ! R19   R(14,15)                1.3891         calculate D2E/DX2 analytically  !
 ! R20   R(14,19)                1.0827         calculate D2E/DX2 analytically  !
 ! R21   R(15,16)                1.3865         calculate D2E/DX2 analytically  !
 ! R22   R(15,20)                1.0826         calculate D2E/DX2 analytically  !
 ! R23   R(16,17)                1.3879         calculate D2E/DX2 analytically  !
 ! R24   R(16,21)                1.0827         calculate D2E/DX2 analytically  !
 ! R25   R(17,22)                1.0838         calculate D2E/DX2 analytically  !
 ! R26   R(24,25)                1.3991         calculate D2E/DX2 analytically  !
 ! R27   R(24,29)                1.3984         calculate D2E/DX2 analytically  !
 ! R28   R(25,26)                1.3873         calculate D2E/DX2 analytically  !
 ! R29   R(25,30)                1.0842         calculate D2E/DX2 analytically  !
 ! R30   R(26,27)                1.3878         calculate D2E/DX2 analytically  !
 ! R31   R(26,31)                1.0834         calculate D2E/DX2 analytically  !
 ! R32   R(27,28)                1.3884         calculate D2E/DX2 analytically  !
 ! R33   R(27,32)                1.0828         calculate D2E/DX2 analytically  !
 ! R34   R(28,29)                1.3863         calculate D2E/DX2 analytically  !
 ! R35   R(28,33)                1.0834         calculate D2E/DX2 analytically  !
 ! R36   R(29,34)                1.0834         calculate D2E/DX2 analytically  !
 ! R37   R(35,36)                1.4418         calculate D2E/DX2 analytically  !
 ! R38   R(35,37)                1.0034         calculate D2E/DX2 analytically  !
 ! R39   R(36,38)                1.0941         calculate D2E/DX2 analytically  !
 ! R40   R(36,39)                1.0885         calculate D2E/DX2 analytically  !
 ! R41   R(36,40)                1.0912         calculate D2E/DX2 analytically  !
 ! A1    A(2,1,4)              114.7838         calculate D2E/DX2 analytically  !
 ! A2    A(2,1,24)             121.5012         calculate D2E/DX2 analytically  !
 ! A3    A(4,1,24)             123.3304         calculate D2E/DX2 analytically  !
 ! A4    A(1,2,3)              122.5054         calculate D2E/DX2 analytically  !
 ! A5    A(1,2,35)             118.7111         calculate D2E/DX2 analytically  !
 ! A6    A(3,2,35)             118.7814         calculate D2E/DX2 analytically  !
 ! A7    A(1,4,9)              108.3342         calculate D2E/DX2 analytically  !
 ! A8    A(1,4,12)             121.995          calculate D2E/DX2 analytically  !
 ! A9    A(1,4,23)             114.3481         calculate D2E/DX2 analytically  !
 ! A10   A(9,4,12)             103.2352         calculate D2E/DX2 analytically  !
 ! A11   A(9,4,23)              91.248          calculate D2E/DX2 analytically  !
 ! A12   A(12,4,23)            112.1839         calculate D2E/DX2 analytically  !
 ! A13   A(6,5,7)              108.9226         calculate D2E/DX2 analytically  !
 ! A14   A(6,5,8)              109.341          calculate D2E/DX2 analytically  !
 ! A15   A(6,5,9)              111.8051         calculate D2E/DX2 analytically  !
 ! A16   A(7,5,8)              108.7724         calculate D2E/DX2 analytically  !
 ! A17   A(7,5,9)              108.682          calculate D2E/DX2 analytically  !
 ! A18   A(8,5,9)              109.2653         calculate D2E/DX2 analytically  !
 ! A19   A(4,9,5)              116.6831         calculate D2E/DX2 analytically  !
 ! A20   A(4,9,10)              96.2599         calculate D2E/DX2 analytically  !
 ! A21   A(4,9,11)             107.9883         calculate D2E/DX2 analytically  !
 ! A22   A(5,9,10)             112.6772         calculate D2E/DX2 analytically  !
 ! A23   A(5,9,11)             112.8427         calculate D2E/DX2 analytically  !
 ! A24   A(10,9,11)            109.0598         calculate D2E/DX2 analytically  !
 ! A25   A(4,12,13)            122.0032         calculate D2E/DX2 analytically  !
 ! A26   A(4,12,17)            119.27           calculate D2E/DX2 analytically  !
 ! A27   A(13,12,17)           118.7241         calculate D2E/DX2 analytically  !
 ! A28   A(12,13,14)           120.6612         calculate D2E/DX2 analytically  !
 ! A29   A(12,13,18)           119.7898         calculate D2E/DX2 analytically  !
 ! A30   A(14,13,18)           119.5462         calculate D2E/DX2 analytically  !
 ! A31   A(13,14,15)           120.1727         calculate D2E/DX2 analytically  !
 ! A32   A(13,14,19)           119.7519         calculate D2E/DX2 analytically  !
 ! A33   A(15,14,19)           120.0752         calculate D2E/DX2 analytically  !
 ! A34   A(14,15,16)           119.6304         calculate D2E/DX2 analytically  !
 ! A35   A(14,15,20)           120.157          calculate D2E/DX2 analytically  !
 ! A36   A(16,15,20)           120.2115         calculate D2E/DX2 analytically  !
 ! A37   A(15,16,17)           120.027          calculate D2E/DX2 analytically  !
 ! A38   A(15,16,21)           120.1724         calculate D2E/DX2 analytically  !
 ! A39   A(17,16,21)           119.7988         calculate D2E/DX2 analytically  !
 ! A40   A(12,17,16)           120.772          calculate D2E/DX2 analytically  !
 ! A41   A(12,17,22)           119.4146         calculate D2E/DX2 analytically  !
 ! A42   A(16,17,22)           119.8123         calculate D2E/DX2 analytically  !
 ! A43   A(1,24,25)            121.3965         calculate D2E/DX2 analytically  !
 ! A44   A(1,24,29)            121.4188         calculate D2E/DX2 analytically  !
 ! A45   A(25,24,29)           117.1846         calculate D2E/DX2 analytically  !
 ! A46   A(24,25,26)           121.5726         calculate D2E/DX2 analytically  !
 ! A47   A(24,25,30)           118.8887         calculate D2E/DX2 analytically  !
 ! A48   A(26,25,30)           119.536          calculate D2E/DX2 analytically  !
 ! A49   A(25,26,27)           120.176          calculate D2E/DX2 analytically  !
 ! A50   A(25,26,31)           119.749          calculate D2E/DX2 analytically  !
 ! A51   A(27,26,31)           120.0698         calculate D2E/DX2 analytically  !
 ! A52   A(26,27,28)           119.257          calculate D2E/DX2 analytically  !
 ! A53   A(26,27,32)           120.3671         calculate D2E/DX2 analytically  !
 ! A54   A(28,27,32)           120.3757         calculate D2E/DX2 analytically  !
 ! A55   A(27,28,29)           120.2515         calculate D2E/DX2 analytically  !
 ! A56   A(27,28,33)           120.0174         calculate D2E/DX2 analytically  !
 ! A57   A(29,28,33)           119.728          calculate D2E/DX2 analytically  !
 ! A58   A(24,29,28)           121.5464         calculate D2E/DX2 analytically  !
 ! A59   A(24,29,34)           118.7938         calculate D2E/DX2 analytically  !
 ! A60   A(28,29,34)           119.6582         calculate D2E/DX2 analytically  !
 ! A61   A(2,35,36)            122.0827         calculate D2E/DX2 analytically  !
 ! A62   A(2,35,37)            118.0785         calculate D2E/DX2 analytically  !
 ! A63   A(36,35,37)           118.1915         calculate D2E/DX2 analytically  !
 ! A64   A(35,36,38)           112.0375         calculate D2E/DX2 analytically  !
 ! A65   A(35,36,39)           108.6192         calculate D2E/DX2 analytically  !
 ! A66   A(35,36,40)           111.2767         calculate D2E/DX2 analytically  !
 ! A67   A(38,36,39)           108.5645         calculate D2E/DX2 analytically  !
 ! A68   A(38,36,40)           107.8557         calculate D2E/DX2 analytically  !
 ! A69   A(39,36,40)           108.3908         calculate D2E/DX2 analytically  !
 ! D1    D(4,1,2,3)              8.1477         calculate D2E/DX2 analytically  !
 ! D2    D(4,1,2,35)          -171.3172         calculate D2E/DX2 analytically  !
 ! D3    D(24,1,2,3)          -164.9589         calculate D2E/DX2 analytically  !
 ! D4    D(24,1,2,35)           15.5762         calculate D2E/DX2 analytically  !
 ! D5    D(2,1,4,9)            -67.0843         calculate D2E/DX2 analytically  !
 ! D6    D(2,1,4,12)           173.4816         calculate D2E/DX2 analytically  !
 ! D7    D(2,1,4,23)            33.0028         calculate D2E/DX2 analytically  !
 ! D8    D(24,1,4,9)           105.8804         calculate D2E/DX2 analytically  !
 ! D9    D(24,1,4,12)          -13.5537         calculate D2E/DX2 analytically  !
 ! D10   D(24,1,4,23)         -154.0325         calculate D2E/DX2 analytically  !
 ! D11   D(2,1,24,25)           56.4615         calculate D2E/DX2 analytically  !
 ! D12   D(2,1,24,29)         -123.4009         calculate D2E/DX2 analytically  !
 ! D13   D(4,1,24,25)         -116.0447         calculate D2E/DX2 analytically  !
 ! D14   D(4,1,24,29)           64.0929         calculate D2E/DX2 analytically  !
 ! D15   D(1,2,35,36)         -170.4702         calculate D2E/DX2 analytically  !
 ! D16   D(1,2,35,37)           -5.3718         calculate D2E/DX2 analytically  !
 ! D17   D(3,2,35,36)           10.0447         calculate D2E/DX2 analytically  !
 ! D18   D(3,2,35,37)          175.1431         calculate D2E/DX2 analytically  !
 ! D19   D(1,4,9,5)            172.6165         calculate D2E/DX2 analytically  !
 ! D20   D(1,4,9,10)            53.328          calculate D2E/DX2 analytically  !
 ! D21   D(1,4,9,11)           -59.0685         calculate D2E/DX2 analytically  !
 ! D22   D(12,4,9,5)           -56.74           calculate D2E/DX2 analytically  !
 ! D23   D(12,4,9,10)         -176.0286         calculate D2E/DX2 analytically  !
 ! D24   D(12,4,9,11)           71.575          calculate D2E/DX2 analytically  !
 ! D25   D(23,4,9,5)            56.4074         calculate D2E/DX2 analytically  !
 ! D26   D(23,4,9,10)          -62.8811         calculate D2E/DX2 analytically  !
 ! D27   D(23,4,9,11)         -175.2776         calculate D2E/DX2 analytically  !
 ! D28   D(1,4,12,13)           59.6334         calculate D2E/DX2 analytically  !
 ! D29   D(1,4,12,17)         -120.9743         calculate D2E/DX2 analytically  !
 ! D30   D(9,4,12,13)          -62.2343         calculate D2E/DX2 analytically  !
 ! D31   D(9,4,12,17)          117.158          calculate D2E/DX2 analytically  !
 ! D32   D(23,4,12,13)        -159.1304         calculate D2E/DX2 analytically  !
 ! D33   D(23,4,12,17)          20.2619         calculate D2E/DX2 analytically  !
 ! D34   D(6,5,9,4)           -169.2832         calculate D2E/DX2 analytically  !
 ! D35   D(6,5,9,10)           -59.2687         calculate D2E/DX2 analytically  !
 ! D36   D(6,5,9,11)            64.7902         calculate D2E/DX2 analytically  !
 ! D37   D(7,5,9,4)            -49.0192         calculate D2E/DX2 analytically  !
 ! D38   D(7,5,9,10)            60.9953         calculate D2E/DX2 analytically  !
 ! D39   D(7,5,9,11)          -174.9458         calculate D2E/DX2 analytically  !
 ! D40   D(8,5,9,4)             69.5385         calculate D2E/DX2 analytically  !
 ! D41   D(8,5,9,10)           179.553          calculate D2E/DX2 analytically  !
 ! D42   D(8,5,9,11)           -56.3882         calculate D2E/DX2 analytically  !
 ! D43   D(4,12,13,14)        -179.9616         calculate D2E/DX2 analytically  !
 ! D44   D(4,12,13,18)          -0.5648         calculate D2E/DX2 analytically  !
 ! D45   D(17,12,13,14)          0.6429         calculate D2E/DX2 analytically  !
 ! D46   D(17,12,13,18)       -179.9603         calculate D2E/DX2 analytically  !
 ! D47   D(4,12,17,16)         179.2953         calculate D2E/DX2 analytically  !
 ! D48   D(4,12,17,22)          -0.3293         calculate D2E/DX2 analytically  !
 ! D49   D(13,12,17,16)         -1.2923         calculate D2E/DX2 analytically  !
 ! D50   D(13,12,17,22)        179.083          calculate D2E/DX2 analytically  !
 ! D51   D(12,13,14,15)          0.303          calculate D2E/DX2 analytically  !
 ! D52   D(12,13,14,19)       -179.8837         calculate D2E/DX2 analytically  !
 ! D53   D(18,13,14,15)       -179.0953         calculate D2E/DX2 analytically  !
 ! D54   D(18,13,14,19)          0.718          calculate D2E/DX2 analytically  !
 ! D55   D(13,14,15,16)         -0.613          calculate D2E/DX2 analytically  !
 ! D56   D(13,14,15,20)        179.7714         calculate D2E/DX2 analytically  !
 ! D57   D(19,14,15,16)        179.5744         calculate D2E/DX2 analytically  !
 ! D58   D(19,14,15,20)         -0.0412         calculate D2E/DX2 analytically  !
 ! D59   D(14,15,16,17)         -0.0306         calculate D2E/DX2 analytically  !
 ! D60   D(14,15,16,21)       -179.5439         calculate D2E/DX2 analytically  !
 ! D61   D(20,15,16,17)        179.5848         calculate D2E/DX2 analytically  !
 ! D62   D(20,15,16,21)          0.0715         calculate D2E/DX2 analytically  !
 ! D63   D(15,16,17,12)          0.9962         calculate D2E/DX2 analytically  !
 ! D64   D(15,16,17,22)       -179.3806         calculate D2E/DX2 analytically  !
 ! D65   D(21,16,17,12)       -179.4887         calculate D2E/DX2 analytically  !
 ! D66   D(21,16,17,22)          0.1345         calculate D2E/DX2 analytically  !
 ! D67   D(1,24,25,26)         179.9385         calculate D2E/DX2 analytically  !
 ! D68   D(1,24,25,30)           0.5259         calculate D2E/DX2 analytically  !
 ! D69   D(29,24,25,26)         -0.1935         calculate D2E/DX2 analytically  !
 ! D70   D(29,24,25,30)       -179.6061         calculate D2E/DX2 analytically  !
 ! D71   D(1,24,29,28)        -179.0625         calculate D2E/DX2 analytically  !
 ! D72   D(1,24,29,34)           0.47           calculate D2E/DX2 analytically  !
 ! D73   D(25,24,29,28)          1.0696         calculate D2E/DX2 analytically  !
 ! D74   D(25,24,29,34)       -179.398          calculate D2E/DX2 analytically  !
 ! D75   D(24,25,26,27)         -0.6585         calculate D2E/DX2 analytically  !
 ! D76   D(24,25,26,31)       -179.8301         calculate D2E/DX2 analytically  !
 ! D77   D(30,25,26,27)        178.7504         calculate D2E/DX2 analytically  !
 ! D78   D(30,25,26,31)         -0.4211         calculate D2E/DX2 analytically  !
 ! D79   D(25,26,27,28)          0.6469         calculate D2E/DX2 analytically  !
 ! D80   D(25,26,27,32)       -179.5236         calculate D2E/DX2 analytically  !
 ! D81   D(31,26,27,28)        179.8158         calculate D2E/DX2 analytically  !
 ! D82   D(31,26,27,32)         -0.3547         calculate D2E/DX2 analytically  !
 ! D83   D(26,27,28,29)          0.2142         calculate D2E/DX2 analytically  !
 ! D84   D(26,27,28,33)        179.5696         calculate D2E/DX2 analytically  !
 ! D85   D(32,27,28,29)       -179.6152         calculate D2E/DX2 analytically  !
 ! D86   D(32,27,28,33)         -0.2599         calculate D2E/DX2 analytically  !
 ! D87   D(27,28,29,24)         -1.0982         calculate D2E/DX2 analytically  !
 ! D88   D(27,28,29,34)        179.3733         calculate D2E/DX2 analytically  !
 ! D89   D(33,28,29,24)        179.5445         calculate D2E/DX2 analytically  !
 ! D90   D(33,28,29,34)          0.016          calculate D2E/DX2 analytically  !
 ! D91   D(2,35,36,38)          58.5128         calculate D2E/DX2 analytically  !
 ! D92   D(2,35,36,39)         178.4343         calculate D2E/DX2 analytically  !
 ! D93   D(2,35,36,40)         -62.3255         calculate D2E/DX2 analytically  !
 ! D94   D(37,35,36,38)       -106.5696         calculate D2E/DX2 analytically  !
 ! D95   D(37,35,36,39)         13.3519         calculate D2E/DX2 analytically  !
 ! D96   D(37,35,36,40)        132.5921         calculate D2E/DX2 analytically  !
 --------------------------------------------------------------------------------
 Trust Radius=5.00D-02 FncErr=1.00D-07 GrdErr=1.00D-06 EigMax=2.50D+02 EigMin=1.00D-04
 Number of steps in this run=     70 maximum allowed number of steps=    240.
 Search for a saddle point of order  1.
 GradGradGradGradGradGradGradGradGradGradGradGradGradGradGradGradGradGrad

                          Input orientation:                          
 ---------------------------------------------------------------------
 Center     Atomic      Atomic             Coordinates (Angstroms)
 Number     Number       Type             X           Y           Z
 ---------------------------------------------------------------------
      1          6           0       -0.863340   -0.447060   -0.307980
      2          6           0       -2.063720   -1.224230   -0.453540
      3          8           0       -2.066950   -2.476780   -0.393670
      4          6           0        0.331020   -1.202310   -0.273680
      5          6           0        1.415280   -3.184550    1.429510
      6          1           0        1.244010   -3.855100    2.272150
      7          1           0        1.475450   -3.774400    0.514970
      8          1           0        2.359030   -2.661030    1.571420
      9          7           0        0.340790   -2.209150    1.286380
     10          1           0       -0.568820   -2.645000    1.143000
     11          1           0        0.281880   -1.571200    2.070710
     12          6           0        1.673490   -0.556510   -0.271240
     13          6           0        2.066340    0.326160    0.732410
     14          6           0        3.320960    0.911410    0.706740
     15          6           0        4.202640    0.627740   -0.328540
     16          6           0        3.824100   -0.254390   -1.328960
     17          6           0        2.570720   -0.849300   -1.292640
     18          1           0        1.381520    0.565880    1.536540
     19          1           0        3.611720    1.593890    1.495400
     20          1           0        5.182160    1.088340   -0.350320
     21          1           0        4.507130   -0.487460   -2.136050
     22          1           0        2.282240   -1.546020   -2.071030
     23          1           0        0.309690   -2.102550   -0.882730
     24          6           0       -0.911680    1.012630   -0.053500
     25          6           0       -1.602950    1.538800    1.043220
     26          6           0       -1.649520    2.904020    1.285540
     27          6           0       -0.990580    3.785430    0.440090
     28          6           0       -0.298200    3.285950   -0.654790
     29          6           0       -0.270810    1.921950   -0.900850
     30          1           0       -2.104490    0.858110    1.721860
     31          1           0       -2.191310    3.279190    2.145410
     32          1           0       -1.018480    4.850980    0.630680
     33          1           0        0.214740    3.963480   -1.326770
     34          1           0        0.263940    1.543490   -1.763760
     35          7           0       -3.243740   -0.573470   -0.676140
     36          6           0       -4.513840   -1.254500   -0.633030
     37          1           0       -3.242500    0.429580   -0.648280
     38          1           0       -4.691890   -1.730220    0.336020
     39          1           0       -5.304120   -0.527820   -0.812780
     40          1           0       -4.575210   -2.026980   -1.401290
 ---------------------------------------------------------------------
                    Distance matrix (angstroms):
                    1          2          3          4          5
     1  C    0.000000
     2  C    1.437391   0.000000
     3  O    2.361310   1.253984   0.000000
     4  C    1.413533   2.401585   2.718259   0.000000
     5  C    3.962932   4.414994   3.993851   2.829444   0.000000
     6  H    4.765788   5.029109   4.468648   3.788416   1.090419
     7  H    4.149503   4.468456   3.880469   2.923583   1.089921
     8  H    4.337911   5.072039   4.846114   3.105653   1.088520
     9  N    2.663996   3.127148   2.948119   1.856774   1.458225
    10  H    2.650099   2.608113   2.152683   2.213154   2.076019
    11  H    2.869388   3.463245   3.522818   2.373744   2.073314
    12  C    2.539456   3.800766   4.206343   1.489728   3.140990
    13  C    3.203639   4.568105   5.119435   2.521859   3.637982
    14  C    4.514805   5.907790   6.459126   3.790617   4.575030
    15  C    5.178781   6.535494   6.996431   4.282702   5.039213
    16  C    4.801210   6.031034   6.365395   3.770116   4.690139
    17  C    3.595013   4.724690   4.996481   2.485790   3.768094
    18  H    3.076962   4.362865   4.987528   2.739880   3.752109
    19  H    5.238685   6.629539   7.237833   4.659546   5.259485
    20  H    6.237573   7.606669   8.078462   5.365306   5.967811
    21  H    5.673220   6.822737   7.086029   4.628102   5.435720
    22  H    3.769712   4.648354   4.753452   2.675044   3.961083
    23  H    2.108787   2.566851   2.455126   1.087120   2.781997
    24  C    1.482495   2.547699   3.691388   2.549263   5.022985
    25  C    2.513246   3.175993   4.290085   3.603908   5.618627
    26  C    3.793036   4.498712   5.652168   4.818262   6.817948
    27  C    4.299973   5.200663   6.408510   5.208996   7.439606
    28  C    3.791441   4.847606   6.033715   4.548147   7.010541
    29  C    2.512926   3.648707   4.778303   3.242922   5.860872
    30  H    2.713701   3.011672   3.949477   3.762874   5.368179
    31  H    4.654843   5.201116   6.292343   5.683132   7.436393
    32  H    5.382785   6.259092   7.472928   6.267483   8.433923
    33  H    4.653284   5.732909   6.895922   5.273320   7.754528
    34  H    2.711521   3.846421   4.844870   3.124781   5.820388
    35  N    2.412017   1.365828   2.255485   3.651893   5.740903
    36  C    3.752835   2.456872   2.745639   4.858449   6.567620
    37  H    2.558262   2.040229   3.145421   3.946319   6.250925
    38  H    4.088891   2.790467   2.824909   5.087244   6.372466
    39  H    4.470109   3.333801   3.801759   5.700909   7.565475
    40  H    4.179647   2.801824   2.740253   5.101243   6.726022
                    6          7          8          9         10
     6  H    0.000000
     7  H    1.774192   0.000000
     8  H    1.777666   1.770986   0.000000
     9  N    2.120542   2.081474   2.087759   0.000000
    10  H    2.454725   2.418472   2.959072   1.018780   0.000000
    11  H    2.486458   2.949411   2.398244   1.012731   1.654504
    12  C    4.187360   3.318458   2.879994   2.633152   3.374881
    13  C    4.531000   4.148617   3.116554   3.116441   3.992549
    14  C    5.429903   5.039791   3.799383   4.353767   5.288550
    15  C    5.967657   5.246705   4.221937   5.056659   5.970183
    16  C    5.708763   4.615919   4.043581   4.774363   5.578830
    17  C    4.847960   3.608778   3.395588   3.670575   4.360458
    18  H    4.483871   4.459872   3.371897   2.974305   3.777360
    19  H    5.991735   5.860327   4.436142   5.020536   5.963999
    20  H    6.842804   6.175327   5.071580   6.082030   7.017236
    21  H    6.435929   5.198362   4.804589   5.660003   6.416574
    22  H    5.027224   3.507703   3.810064   3.934612   4.434669
    23  H    3.727956   2.471365   3.245697   2.171950   2.273678
    24  C    5.809513   5.379331   5.180124   3.707267   3.863602
    25  C    6.221705   6.163253   5.797832   4.228993   4.310866
    26  C    7.418330   7.413536   6.864400   5.486879   5.655073
    27  C    8.168692   7.952229   7.352322   6.198689   6.482468
    28  C    7.870196   7.373108   6.883564   5.862813   6.203342
    29  C    6.762907   6.123918   5.833685   4.714236   5.012301
    30  H    5.807721   5.977684   5.685947   3.946786   3.868480
    31  H    7.919317   8.115208   7.504750   6.105026   6.223610
    32  H    9.143802   8.979435   8.289925   7.219626   7.526911
    33  H    8.668438   8.053334   7.541990   6.704163   7.098291
    34  H    6.811305   5.911034   5.761147   4.836483   5.165868
    35  N    6.292965   5.825414   6.387524   4.401794   3.841315
    36  C    6.953850   6.598439   7.353521   5.306875   4.544332
    37  H    6.856834   6.425391   6.771711   4.852399   4.450875
    38  H    6.595349   6.499752   7.218594   5.143970   4.299738
    39  H    7.966529   7.633202   8.304147   6.252868   5.543518
    40  H    7.120359   6.583010   7.571176   5.605695   4.786076
                   11         12         13         14         15
    11  H    0.000000
    12  C    2.907044   0.000000
    13  C    2.928365   1.393108   0.000000
    14  C    4.154488   2.413585   1.384647   0.000000
    15  C    5.095498   2.793265   2.404234   1.389112   0.000000
    16  C    5.083214   2.415610   2.770560   2.399232   1.386465
    17  C    4.131834   1.390685   2.395190   2.767757   2.402977
    18  H    2.462043   2.147807   1.083083   2.137612   3.382465
    19  H    4.629969   3.391456   2.139508   1.082730   2.146949
    20  H    6.078428   3.875893   3.385492   2.147730   1.082629
    21  H    6.060038   3.392904   3.853245   3.383089   2.145572
    22  H    4.599574   2.142184   3.378009   3.851481   3.383702
    23  H    3.000986   2.150374   3.404868   4.547320   4.787136
    24  C    3.551483   3.031949   3.155550   4.301564   5.136152
    25  C    3.778944   4.105263   3.876956   4.975111   6.034619
    26  C    4.937043   5.043930   4.556197   5.386202   6.483400
    27  C    5.742087   5.143511   4.625663   5.188494   6.126282
    28  C    5.599710   4.335801   4.034319   4.537678   5.237373
    29  C    4.619278   3.212394   3.267469   4.062801   4.691937
    30  H    3.423157   4.499637   4.319468   5.519857   6.636045
    31  H    5.445047   5.957304   5.370711   6.169382   7.350729
    32  H    6.708876   6.107463   5.477268   5.861462   6.783506
    33  H    6.494618   4.865430   4.571514   4.806131   5.294051
    34  H    4.940119   2.936741   3.310801   3.980988   4.290899
    35  N    4.579372   4.933901   5.566893   6.871136   7.550649
    36  C    5.514475   6.237077   6.903744   8.238340   8.922587
    37  H    4.880295   5.028070   5.486418   6.719170   7.454637
    38  H    5.269993   6.501109   7.075274   8.445200   9.225740
    39  H    6.372327   6.998652   7.578956   8.875378   9.588967
    40  H    5.987808   6.518094   7.362074   8.684896   9.233037
                   16         17         18         19         20
    16  C    0.000000
    17  C    1.387876   0.000000
    18  H    3.853587   3.379525   0.000000
    19  H    3.382049   3.850458   2.456072   0.000000
    20  H    2.145923   3.385563   4.275286   2.475590   0.000000
    21  H    1.082703   2.142884   4.936282   4.280328   2.475408
    22  H    2.143900   1.083758   4.276211   4.934164   4.279046
    23  H    3.995735   2.617426   3.757952   5.497506   5.848607
    24  C    5.065545   4.138763   2.826054   4.816441   6.101534
    25  C    6.188347   5.345913   3.177578   5.234528   6.941368
    26  C    6.838982   6.208450   3.836288   5.425968   7.255659
    27  C    6.529229   6.096387   4.146633   5.205544   6.782460
    28  C    5.475570   5.073248   3.875844   4.772196   5.912405
    29  C    4.657040   3.988436   3.241912   4.574241   5.543724
    30  H    6.759685   5.818939   3.503143   5.767817   7.579064
    31  H    7.793753   7.179244   4.527459   6.077656   8.086813
    32  H    7.304490   7.005334   4.994263   5.726703   7.319000
    33  H    5.551388   5.358606   4.593866   5.011893   5.821954
    34  H    4.012002   3.356878   3.618934   4.672504   5.137496
    35  N    7.105093   5.853554   5.252342   7.510684   8.594391
    36  C    8.426493   7.126729   6.540343   8.869513   9.979040
    37  H    7.132179   5.987008   5.116012   7.275391   8.455628
    38  H    8.801836   7.494935   6.603002   9.019080  10.291366
    39  H    9.146891   7.895994   7.170304   9.451008  10.620165
    40  H    8.584621   7.243138   7.129965   9.408897  10.296408
                   21         22         23         24         25
    21  H    0.000000
    22  H    2.464734   0.000000
    23  H    4.668815   2.369121   0.000000
    24  C    5.995897   4.562701   3.447276   0.000000
    25  C    7.179594   5.857420   4.541685   1.399108   0.000000
    26  C    7.817529   6.821155   5.797037   2.432035   1.387340
    27  C    7.424210   6.741026   6.173238   2.817495   2.405433
    28  C    6.286808   5.657945   5.427469   2.430204   2.763719
    29  C    5.491784   4.462533   4.066191   1.398420   2.387637
    30  H    7.772229   6.277679   4.623598   2.144429   1.084174
    31  H    8.797025   7.814964   6.662414   3.407338   2.142416
    32  H    8.166156   7.688667   7.239201   3.900313   3.388559
    33  H    6.236218   5.931532   6.083001   3.405518   3.847067
    34  H    4.718900   3.703110   3.751255   2.142168   3.371118
    35  N    7.887631   5.781698   3.873968   2.888234   3.179634
    36  C    9.177435   6.952664   4.903874   4.295496   4.368709
    37  H    7.944255   6.037381   4.368604   2.475163   2.603779
    38  H    9.606121   7.380129   5.161374   4.686677   4.552820
    39  H    9.900167   7.757112   5.830912   4.716251   4.627560
    40  H    9.241152   6.906844   4.912928   4.947446   5.246403
                   26         27         28         29         30
    26  C    0.000000
    27  C    1.387758   0.000000
    28  C    2.395165   1.388392   0.000000
    29  C    2.765069   2.405981   1.386287   0.000000
    30  H    2.140822   3.384218   3.847799   3.372350   0.000000
    31  H    1.083358   2.146194   3.380093   3.848392   2.459382
    32  H    2.148885   1.082820   2.149548   3.388777   4.279381
    33  H    3.379657   2.146227   1.083380   2.141264   4.931156
    34  H    3.848454   3.384829   2.140557   1.083422   4.269514
    35  N    4.299147   5.032167   4.855078   3.887921   3.016242
    36  C    5.401715   6.242263   6.195787   5.307058   3.976631
    37  H    3.521377   4.185382   4.102169   3.334951   2.663882
    38  H    5.624392   6.643261   6.741526   5.866357   3.913393
    39  H    5.434756   6.227394   6.295160   5.598512   4.310781
    40  H    6.331941   7.072790   6.861290   5.862794   4.917547
                   31         32         33         34         35
    31  H    0.000000
    32  H    2.477995   0.000000
    33  H    4.279412   2.477922   0.000000
    34  H    4.931786   4.279887   2.459620   0.000000
    35  N    4.889963   6.007014   5.741804   4.238898   0.000000
    36  C    5.802432   7.147824   7.075879   5.651060   1.441809
    37  H    4.126740   5.111828   4.990121   3.844504   1.003438
    38  H    5.883960   7.542742   7.697929   6.299723   2.111795
    39  H    5.738798   7.027217   7.133987   6.016476   2.065410
    40  H    6.813039   8.005346   7.670384   6.024700   2.100321
                   36         37         38         39         40
    36  C    0.000000
    37  H    2.110134   0.000000
    38  H    1.094107   2.781063   0.000000
    39  H    1.088539   2.279024   1.772098   0.000000
    40  H    1.091199   2.894448   1.766331   1.767805   0.000000
 Stoichiometry    C17H20N2O
 Framework group  C1[X(C17H20N2O)]
 Deg. of freedom   114
 Full point group                 C1      NOp   1
 Largest Abelian subgroup         C1      NOp   1
 Largest concise Abelian subgroup C1      NOp   1
                         Standard orientation:                         
 ---------------------------------------------------------------------
 Center     Atomic      Atomic             Coordinates (Angstroms)
 Number     Number       Type             X           Y           Z
 ---------------------------------------------------------------------
      1          6           0       -0.863340   -0.447059   -0.307980
      2          6           0       -2.063720   -1.224228   -0.453540
      3          8           0       -2.066951   -2.476778   -0.393670
      4          6           0        0.331020   -1.202310   -0.273680
      5          6           0        1.415278   -3.184551    1.429510
      6          1           0        1.244007   -3.855101    2.272150
      7          1           0        1.475447   -3.774401    0.514970
      8          1           0        2.359028   -2.661032    1.571420
      9          7           0        0.340789   -2.209150    1.286380
     10          1           0       -0.568822   -2.645000    1.143000
     11          1           0        0.281879   -1.571200    2.070710
     12          6           0        1.673490   -0.556512   -0.271240
     13          6           0        2.066341    0.326158    0.732410
     14          6           0        3.320961    0.911407    0.706740
     15          6           0        4.202641    0.627736   -0.328540
     16          6           0        3.824100   -0.254393   -1.328960
     17          6           0        2.570720   -0.849302   -1.292640
     18          1           0        1.381521    0.565879    1.536540
     19          1           0        3.611722    1.593887    1.495400
     20          1           0        5.182162    1.088335   -0.350320
     21          1           0        4.507130   -0.487464   -2.136050
     22          1           0        2.282239   -1.546022   -2.071030
     23          1           0        0.309689   -2.102550   -0.882730
     24          6           0       -0.911678    1.012631   -0.053500
     25          6           0       -1.602948    1.538801    1.043220
     26          6           0       -1.649517    2.904021    1.285540
     27          6           0       -0.990576    3.785431    0.440090
     28          6           0       -0.298196    3.285950   -0.654790
     29          6           0       -0.270808    1.921950   -0.900850
     30          1           0       -2.104489    0.858112    1.721860
     31          1           0       -2.191306    3.279192    2.145410
     32          1           0       -1.018475    4.850981    0.630680
     33          1           0        0.214744    3.963480   -1.326770
     34          1           0        0.263942    1.543490   -1.763760
     35          7           0       -3.243740   -0.573467   -0.676140
     36          6           0       -4.513840   -1.254496   -0.633030
     37          1           0       -3.242499    0.429583   -0.648280
     38          1           0       -4.691891   -1.730216    0.336020
     39          1           0       -5.304120   -0.527816   -0.812780
     40          1           0       -4.575211   -2.026976   -1.401290
 ---------------------------------------------------------------------
 Rotational constants (GHZ):           0.4209743           0.2964635           0.2043338
 Standard basis: def2TZVP (5D, 7F)
 There are   840 symmetry adapted cartesian basis functions of A   symmetry.
 There are   740 symmetry adapted basis functions of A   symmetry.
   740 basis functions,  1180 primitive gaussians,   840 cartesian basis functions
    72 alpha electrons       72 beta electrons
       nuclear repulsion energy      1538.7835351857 Hartrees.
 NAtoms=   40 NActive=   40 NUniq=   40 SFac= 1.00D+00 NAtFMM=   60 NAOKFM=F Big=F
 Integral buffers will be    131072 words long.
 Raffenetti 2 integral format.
 Two-electron integral symmetry is turned on.
 Nuclear repulsion after empirical dispersion term =     1538.7508903186 Hartrees.
 Force inversion solution in PCM.
 ------------------------------------------------------------------------------
 Polarizable Continuum Model (PCM)
 =================================
 Model                : PCM.
 Atomic radii         : UFF (Universal Force Field).
 Polarization charges : Total charges.
 Charge compensation  : None.
 Solution method      : Matrix inversion.
 Cavity type          : Scaled VdW (van der Waals Surface) (Alpha=1.100).
 Cavity algorithm     : GePol (No added spheres)
                        Default sphere list used, NSphG=   40.
                        Lebedev-Laikov grids with approx.  5.0 points / Ang**2.
                        Smoothing algorithm: York/Karplus (Gamma=1.0000).
                        Polarization charges: spherical gaussians, with
                                              point-specific exponents (IZeta= 3).
                        Self-potential: point-specific (ISelfS= 7).
                        Self-field    : sphere-specific E.n sum rule (ISelfD= 2).
 1st derivatives      : Analytical E(r).r(x)/FMM algorithm (CHGder, D1EAlg=3).
                        Cavity 1st derivative terms included.
 2nd derivatives      : Analytical E(r).r(xy)/FMM algorithm (CHGder, D2EAlg=3).
                        Cavity 2nd derivative terms included.
 Solvent              : Water, Eps=  78.355300 Eps(inf)=   1.777849
 ------------------------------------------------------------------------------
 One-electron integrals computed using PRISM.
   1 Symmetry operations used in ECPInt.
 ECPInt:  NShTT=   45150 NPrTT=  135960 LenC2=   40727 LenP2D=   88129.
 LDataN:  DoStor=T MaxTD1= 6 Len=  172
 NBasis=   740 RedAO= T EigKep=  6.15D-06  NBF=   740
 NBsUse=   740 1.00D-06 EigRej= -1.00D+00 NBFU=   740
 ExpMin= 9.52D-02 ExpMax= 2.70D+04 ExpMxC= 9.22D+02 IAcc=3 IRadAn=         5 AccDes= 0.00D+00
 Harris functional with IExCor= 4639 and IRadAn=       5 diagonalized for initial guess.
 HarFok:  IExCor= 4639 AccDes= 0.00D+00 IRadAn=         5 IDoV= 1 UseB2=F ITyADJ=14
 ICtDFT=  3500011 ScaDFX=  1.000000  1.000000  1.000000  1.000000
 FoFCou: FMM=F IPFlag=           0 FMFlag=      100000 FMFlg1=           0
         NFxFlg=           0 DoJE=T BraDBF=F KetDBF=T FulRan=T
         wScrn=  0.000000 ICntrl=       500 IOpCl=  0 I1Cent=   200000004 NGrid=           0
         NMat0=    1 NMatS0=      1 NMatT0=    0 NMatD0=    1 NMtDS0=    0 NMtDT0=    0
 Petite list used in FoFCou.
 Requested convergence on RMS density matrix=1.00D-08 within 128 cycles.
 Requested convergence on MAX density matrix=1.00D-06.
 Requested convergence on             energy=1.00D-06.
 No special actions if energy rises.
 Inv3:  Mode=1 IEnd=    24935067.
 Iteration    1 A*A^-1 deviation from unit magnitude is 5.44D-15 for   2882.
 Iteration    1 A*A^-1 deviation from orthogonality  is 2.80D-15 for   2672   1401.
 Iteration    1 A^-1*A deviation from unit magnitude is 5.77D-15 for   2869.
 Iteration    1 A^-1*A deviation from orthogonality  is 1.97D-13 for   2402   2371.
 Error on total polarization charges =  0.01666
 SCF Done:  E(RwB97XD) =  -844.591373150     A.U. after   14 cycles
            NFock= 14  Conv=0.70D-08     -V/T= 2.0049
 DoSCS=F DFT=T ScalE2(SS,OS)=  1.000000  1.000000
 Range of M.O.s used for correlation:     1   740
 NBasis=   740 NAE=    72 NBE=    72 NFC=     0 NFV=     0
 NROrb=    740 NOA=    72 NOB=    72 NVA=   668 NVB=   668

 **** Warning!!: The largest alpha MO coefficient is  0.57153824D+02

   1 Symmetry operations used in ECPInt.
 ECPInt:  NShTT=   45150 NPrTT=  135960 LenC2=   40727 LenP2D=   88129.
 LDataN:  DoStor=T MaxTD1= 7 Len=  274
 Number of processors reduced to  12 by ecpmxn.
 Symmetrizing basis deriv contribution to polar:
 IMax=3 JMax=2 DiffMx= 0.00D+00
 G2DrvN: will do    41 centers at a time, making    1 passes.
 Calling FoFCou, ICntrl=  3107 FMM=F I1Cent=   0 AccDes= 0.00D+00.
 NEqPCM:  Using equilibrium solvation (IEInf=0, Eps=  78.3553, EpsInf=   1.7778)
 G2PCM: DoFxE=T DoFxN=T DoGrad=T DoDP/DQ/DG/TGxP=FFFF NFrqRd=   0 IEInf=0 SqF1=F DoCFld=F IF1Alg=4.
 End of G2Drv F.D. properties file   721 does not exist.
 End of G2Drv F.D. properties file   722 does not exist.
 End of G2Drv F.D. properties file   788 does not exist.
          IDoAtm=1111111111111111111111111111111111111111
 NEqPCM:  Using equilibrium solvation (IEInf=0, Eps=  78.3553, EpsInf=   1.7778)
          Differentiating once with respect to nuclear coordinates.
 CalDSu exits because no D1Ps are significant.
          There are   123 degrees of freedom in the 1st order CPHF.  IDoFFX=6 NUNeed=     0.
    117 vectors produced by pass  0 Test12= 4.81D-14 1.00D-09 XBig12= 1.28D-01 1.27D-01.
 AX will form   117 AO Fock derivatives at one time.
    117 vectors produced by pass  1 Test12= 4.81D-14 1.00D-09 XBig12= 3.00D-02 2.85D-02.
    117 vectors produced by pass  2 Test12= 4.81D-14 1.00D-09 XBig12= 7.24D-04 3.73D-03.
    117 vectors produced by pass  3 Test12= 4.81D-14 1.00D-09 XBig12= 9.10D-06 4.07D-04.
    117 vectors produced by pass  4 Test12= 4.81D-14 1.00D-09 XBig12= 9.62D-08 2.59D-05.
    117 vectors produced by pass  5 Test12= 4.81D-14 1.00D-09 XBig12= 8.45D-10 2.07D-06.
    117 vectors produced by pass  6 Test12= 4.81D-14 1.00D-09 XBig12= 6.12D-12 1.74D-07.
     55 vectors produced by pass  7 Test12= 4.81D-14 1.00D-09 XBig12= 4.58D-14 1.71D-08.
     21 vectors produced by pass  8 Test12= 4.81D-14 1.00D-09 XBig12= 8.32D-15 7.64D-09.
     14 vectors produced by pass  9 Test12= 4.81D-14 1.00D-09 XBig12= 3.61D-15 4.69D-09.
      7 vectors produced by pass 10 Test12= 4.81D-14 1.00D-09 XBig12= 2.60D-15 4.23D-09.
      6 vectors produced by pass 11 Test12= 4.81D-14 1.00D-09 XBig12= 2.48D-15 3.23D-09.
      6 vectors produced by pass 12 Test12= 4.81D-14 1.00D-09 XBig12= 3.71D-15 4.15D-09.
      6 vectors produced by pass 13 Test12= 4.81D-14 1.00D-09 XBig12= 7.57D-15 5.88D-09.
      6 vectors produced by pass 14 Test12= 4.81D-14 1.00D-09 XBig12= 1.84D-15 2.54D-09.
      6 vectors produced by pass 15 Test12= 4.81D-14 1.00D-09 XBig12= 2.13D-15 3.16D-09.
      6 vectors produced by pass 16 Test12= 4.81D-14 1.00D-09 XBig12= 4.70D-15 4.99D-09.
      6 vectors produced by pass 17 Test12= 4.81D-14 1.00D-09 XBig12= 4.30D-15 6.03D-09.
      6 vectors produced by pass 18 Test12= 4.81D-14 1.00D-09 XBig12= 2.95D-15 3.54D-09.
      5 vectors produced by pass 19 Test12= 4.81D-14 1.00D-09 XBig12= 3.14D-15 3.61D-09.
      5 vectors produced by pass 20 Test12= 4.81D-14 1.00D-09 XBig12= 2.35D-15 3.74D-09.
      5 vectors produced by pass 21 Test12= 4.81D-14 1.00D-09 XBig12= 3.20D-15 3.19D-09.
      5 vectors produced by pass 22 Test12= 4.81D-14 1.00D-09 XBig12= 5.66D-15 4.29D-09.
      5 vectors produced by pass 23 Test12= 4.81D-14 1.00D-09 XBig12= 4.77D-15 4.24D-09.
      5 vectors produced by pass 24 Test12= 4.81D-14 1.00D-09 XBig12= 4.90D-15 4.27D-09.
      5 vectors produced by pass 25 Test12= 4.81D-14 1.00D-09 XBig12= 2.42D-15 2.50D-09.
      5 vectors produced by pass 26 Test12= 4.81D-14 1.00D-09 XBig12= 4.90D-15 3.53D-09.
      4 vectors produced by pass 27 Test12= 4.81D-14 1.00D-09 XBig12= 7.48D-16 1.68D-09.
      4 vectors produced by pass 28 Test12= 4.81D-14 1.00D-09 XBig12= 2.56D-15 2.71D-09.
      4 vectors produced by pass 29 Test12= 4.81D-14 1.00D-09 XBig12= 1.30D-15 1.89D-09.
      4 vectors produced by pass 30 Test12= 4.81D-14 1.00D-09 XBig12= 2.76D-15 3.14D-09.
      4 vectors produced by pass 31 Test12= 4.81D-14 1.00D-09 XBig12= 1.78D-15 2.78D-09.
      4 vectors produced by pass 32 Test12= 4.81D-14 1.00D-09 XBig12= 2.99D-15 3.88D-09.
      4 vectors produced by pass 33 Test12= 4.81D-14 1.00D-09 XBig12= 3.00D-15 3.50D-09.
      4 vectors produced by pass 34 Test12= 4.81D-14 1.00D-09 XBig12= 3.10D-15 3.05D-09.
      4 vectors produced by pass 35 Test12= 4.81D-14 1.00D-09 XBig12= 3.45D-15 3.40D-09.
      4 vectors produced by pass 36 Test12= 4.81D-14 1.00D-09 XBig12= 3.27D-15 3.58D-09.
      4 vectors produced by pass 37 Test12= 4.81D-14 1.00D-09 XBig12= 4.58D-15 4.02D-09.
      4 vectors produced by pass 38 Test12= 4.81D-14 1.00D-09 XBig12= 1.80D-15 2.32D-09.
      4 vectors produced by pass 39 Test12= 4.81D-14 1.00D-09 XBig12= 8.35D-16 1.83D-09.
      4 vectors produced by pass 40 Test12= 4.81D-14 1.00D-09 XBig12= 3.37D-15 3.00D-09.
      4 vectors produced by pass 41 Test12= 4.81D-14 1.00D-09 XBig12= 1.98D-15 2.26D-09.
      4 vectors produced by pass 42 Test12= 4.81D-14 1.00D-09 XBig12= 2.96D-15 3.10D-09.
      4 vectors produced by pass 43 Test12= 4.81D-14 1.00D-09 XBig12= 5.64D-15 3.62D-09.
      4 vectors produced by pass 44 Test12= 4.81D-14 1.00D-09 XBig12= 2.65D-15 2.93D-09.
      4 vectors produced by pass 45 Test12= 4.81D-14 1.00D-09 XBig12= 3.63D-15 3.19D-09.
      4 vectors produced by pass 46 Test12= 4.81D-14 1.00D-09 XBig12= 2.01D-15 2.45D-09.
      4 vectors produced by pass 47 Test12= 4.81D-14 1.00D-09 XBig12= 2.06D-15 2.07D-09.
      4 vectors produced by pass 48 Test12= 4.81D-14 1.00D-09 XBig12= 3.20D-15 2.57D-09.
      4 vectors produced by pass 49 Test12= 4.81D-14 1.00D-09 XBig12= 1.48D-15 1.71D-09.
      4 vectors produced by pass 50 Test12= 4.81D-14 1.00D-09 XBig12= 2.09D-15 2.15D-09.
      4 vectors produced by pass 51 Test12= 4.81D-14 1.00D-09 XBig12= 5.05D-15 3.69D-09.
      2 vectors produced by pass 52 Test12= 4.81D-14 1.00D-09 XBig12= 8.37D-16 1.53D-09.
 InvSVY:  IOpt=1 It=  1 EMax= 6.11D-16
 Solved reduced A of dimension  1106 with   123 vectors.
 End of Minotr F.D. properties file   721 does not exist.
 End of Minotr F.D. properties file   722 does not exist.
 End of Minotr F.D. properties file   788 does not exist.

 **********************************************************************

            Population analysis using the SCF density.

 **********************************************************************

 Orbital symmetries:
       Occupied  (A) (A) (A) (A) (A) (A) (A) (A) (A) (A) (A) (A)
                 (A) (A) (A) (A) (A) (A) (A) (A) (A) (A) (A) (A)
                 (A) (A) (A) (A) (A) (A) (A) (A) (A) (A) (A) (A)
                 (A) (A) (A) (A) (A) (A) (A) (A) (A) (A) (A) (A)
                 (A) (A) (A) (A) (A) (A) (A) (A) (A) (A) (A) (A)
                 (A) (A) (A) (A) (A) (A) (A) (A) (A) (A) (A) (A)
       Virtual   (A) (A) (A) (A) (A) (A) (A) (A) (A) (A) (A) (A)
                 (A) (A) (A) (A) (A) (A) (A) (A) (A) (A) (A) (A)
                 (A) (A) (A) (A) (A) (A) (A) (A) (A) (A) (A) (A)
                 (A) (A) (A) (A) (A) (A) (A) (A) (A) (A) (A) (A)
                 (A) (A) (A) (A) (A) (A) (A) (A) (A) (A) (A) (A)
                 (A) (A) (A) (A) (A) (A) (A) (A) (A) (A) (A) (A)
                 (A) (A) (A) (A) (A) (A) (A) (A) (A) (A) (A) (A)
                 (A) (A) (A) (A) (A) (A) (A) (A) (A) (A) (A) (A)
                 (A) (A) (A) (A) (A) (A) (A) (A) (A) (A) (A) (A)
                 (A) (A) (A) (A) (A) (A) (A) (A) (A) (A) (A) (A)
                 (A) (A) (A) (A) (A) (A) (A) (A) (A) (A) (A) (A)
                 (A) (A) (A) (A) (A) (A) (A) (A) (A) (A) (A) (A)
                 (A) (A) (A) (A) (A) (A) (A) (A) (A) (A) (A) (A)
                 (A) (A) (A) (A) (A) (A) (A) (A) (A) (A) (A) (A)
                 (A) (A) (A) (A) (A) (A) (A) (A) (A) (A) (A) (A)
                 (A) (A) (A) (A) (A) (A) (A) (A) (A) (A) (A) (A)
                 (A) (A) (A) (A) (A) (A) (A) (A) (A) (A) (A) (A)
                 (A) (A) (A) (A) (A) (A) (A) (A) (A) (A) (A) (A)
                 (A) (A) (A) (A) (A) (A) (A) (A) (A) (A) (A) (A)
                 (A) (A) (A) (A) (A) (A) (A) (A) (A) (A) (A) (A)
                 (A) (A) (A) (A) (A) (A) (A) (A) (A) (A) (A) (A)
                 (A) (A) (A) (A) (A) (A) (A) (A) (A) (A) (A) (A)
                 (A) (A) (A) (A) (A) (A) (A) (A) (A) (A) (A) (A)
                 (A) (A) (A) (A) (A) (A) (A) (A) (A) (A) (A) (A)
                 (A) (A) (A) (A) (A) (A) (A) (A) (A) (A) (A) (A)
                 (A) (A) (A) (A) (A) (A) (A) (A) (A) (A) (A) (A)
                 (A) (A) (A) (A) (A) (A) (A) (A) (A) (A) (A) (A)
                 (A) (A) (A) (A) (A) (A) (A) (A) (A) (A) (A) (A)
                 (A) (A) (A) (A) (A) (A) (A) (A) (A) (A) (A) (A)
                 (A) (A) (A) (A) (A) (A) (A) (A) (A) (A) (A) (A)
                 (A) (A) (A) (A) (A) (A) (A) (A) (A) (A) (A) (A)
                 (A) (A) (A) (A) (A) (A) (A) (A) (A) (A) (A) (A)
                 (A) (A) (A) (A) (A) (A) (A) (A) (A) (A) (A) (A)
                 (A) (A) (A) (A) (A) (A) (A) (A) (A) (A) (A) (A)
                 (A) (A) (A) (A) (A) (A) (A) (A) (A) (A) (A) (A)
                 (A) (A) (A) (A) (A) (A) (A) (A) (A) (A) (A) (A)
                 (A) (A) (A) (A) (A) (A) (A) (A) (A) (A) (A) (A)
                 (A) (A) (A) (A) (A) (A) (A) (A) (A) (A) (A) (A)
                 (A) (A) (A) (A) (A) (A) (A) (A) (A) (A) (A) (A)
                 (A) (A) (A) (A) (A) (A) (A) (A) (A) (A) (A) (A)
                 (A) (A) (A) (A) (A) (A) (A) (A) (A) (A) (A) (A)
                 (A) (A) (A) (A) (A) (A) (A) (A) (A) (A) (A) (A)
                 (A) (A) (A) (A) (A) (A) (A) (A) (A) (A) (A) (A)
                 (A) (A) (A) (A) (A) (A) (A) (A) (A) (A) (A) (A)
                 (A) (A) (A) (A) (A) (A) (A) (A) (A) (A) (A) (A)
                 (A) (A) (A) (A) (A) (A) (A) (A) (A) (A) (A) (A)
                 (A) (A) (A) (A) (A) (A) (A) (A) (A) (A) (A) (A)
                 (A) (A) (A) (A) (A) (A) (A) (A) (A) (A) (A) (A)
                 (A) (A) (A) (A) (A) (A) (A) (A) (A) (A) (A) (A)
                 (A) (A) (A) (A) (A) (A) (A) (A) (A) (A) (A) (A)
                 (A) (A) (A) (A) (A) (A) (A) (A) (A) (A) (A) (A)
                 (A) (A) (A) (A) (A) (A) (A) (A) (A) (A) (A) (A)
                 (A) (A) (A) (A) (A) (A) (A) (A) (A) (A) (A) (A)
                 (A) (A) (A) (A) (A) (A) (A) (A) (A) (A) (A) (A)
                 (A) (A) (A) (A) (A) (A) (A) (A) (A) (A) (A) (A)
                 (A) (A) (A) (A) (A) (A) (A) (A)
 The electronic state is 1-A.
 Alpha  occ. eigenvalues --  -19.18960 -14.47819 -14.43420 -10.36034 -10.33322
 Alpha  occ. eigenvalues --  -10.31590 -10.30206 -10.30161 -10.29294 -10.29188
 Alpha  occ. eigenvalues --  -10.29160 -10.29122 -10.29095 -10.29050 -10.28492
 Alpha  occ. eigenvalues --  -10.28425 -10.28310 -10.28091 -10.27965 -10.24587
 Alpha  occ. eigenvalues --   -1.11195  -1.03559  -1.00066  -0.97151  -0.95881
 Alpha  occ. eigenvalues --   -0.90104  -0.86109  -0.85270  -0.84338  -0.82154
 Alpha  occ. eigenvalues --   -0.79780  -0.78095  -0.73300  -0.70800  -0.69599
 Alpha  occ. eigenvalues --   -0.69141  -0.67326  -0.64779  -0.63427  -0.61240
 Alpha  occ. eigenvalues --   -0.60092  -0.58472  -0.56230  -0.55485  -0.55281
 Alpha  occ. eigenvalues --   -0.54420  -0.53726  -0.52940  -0.52712  -0.51908
 Alpha  occ. eigenvalues --   -0.51176  -0.50434  -0.50163  -0.48993  -0.47897
 Alpha  occ. eigenvalues --   -0.47319  -0.46813  -0.46349  -0.45764  -0.45486
 Alpha  occ. eigenvalues --   -0.43512  -0.43018  -0.42118  -0.41752  -0.41603
 Alpha  occ. eigenvalues --   -0.34850  -0.34086  -0.33741  -0.32834  -0.32462
 Alpha  occ. eigenvalues --   -0.31919  -0.24753
 Alpha virt. eigenvalues --    0.03431   0.04655   0.05571   0.06246   0.09710
 Alpha virt. eigenvalues --    0.10324   0.12547   0.13359   0.13555   0.13755
 Alpha virt. eigenvalues --    0.14521   0.15329   0.16017   0.16798   0.17086
 Alpha virt. eigenvalues --    0.17625   0.18124   0.18385   0.18956   0.19016
 Alpha virt. eigenvalues --    0.19600   0.20237   0.20785   0.21263   0.21839
 Alpha virt. eigenvalues --    0.22039   0.22654   0.22983   0.23629   0.24245
 Alpha virt. eigenvalues --    0.24749   0.25196   0.25889   0.26797   0.27640
 Alpha virt. eigenvalues --    0.27979   0.28450   0.28719   0.29459   0.29988
 Alpha virt. eigenvalues --    0.30141   0.30463   0.30795   0.31547   0.31899
 Alpha virt. eigenvalues --    0.32539   0.32661   0.33034   0.33509   0.34612
 Alpha virt. eigenvalues --    0.35167   0.35343   0.35512   0.36213   0.36649
 Alpha virt. eigenvalues --    0.37291   0.38016   0.38801   0.38880   0.39318
 Alpha virt. eigenvalues --    0.40105   0.40966   0.41026   0.41772   0.42234
 Alpha virt. eigenvalues --    0.42652   0.43110   0.43926   0.44196   0.44469
 Alpha virt. eigenvalues --    0.45027   0.45488   0.45636   0.46567   0.46757
 Alpha virt. eigenvalues --    0.47358   0.48154   0.48364   0.48570   0.49124
 Alpha virt. eigenvalues --    0.49420   0.49765   0.49855   0.50294   0.50646
 Alpha virt. eigenvalues --    0.50958   0.51597   0.51701   0.52146   0.52740
 Alpha virt. eigenvalues --    0.52961   0.53350   0.54337   0.54906   0.55115
 Alpha virt. eigenvalues --    0.55385   0.55824   0.56492   0.56551   0.56805
 Alpha virt. eigenvalues --    0.57297   0.57949   0.58371   0.58804   0.59096
 Alpha virt. eigenvalues --    0.59728   0.60296   0.60439   0.61098   0.61669
 Alpha virt. eigenvalues --    0.62576   0.63313   0.63694   0.64204   0.65166
 Alpha virt. eigenvalues --    0.65783   0.66532   0.67244   0.67779   0.69065
 Alpha virt. eigenvalues --    0.69785   0.70589   0.70895   0.71646   0.72451
 Alpha virt. eigenvalues --    0.73532   0.74157   0.74958   0.75284   0.75866
 Alpha virt. eigenvalues --    0.76492   0.77218   0.77434   0.78520   0.79258
 Alpha virt. eigenvalues --    0.79554   0.80451   0.81267   0.81946   0.82090
 Alpha virt. eigenvalues --    0.82525   0.83641   0.84807   0.85094   0.85745
 Alpha virt. eigenvalues --    0.86264   0.87216   0.87352   0.88523   0.89588
 Alpha virt. eigenvalues --    0.89718   0.90777   0.92310   0.92778   0.93390
 Alpha virt. eigenvalues --    0.94200   0.94761   0.95344   0.96128   0.96830
 Alpha virt. eigenvalues --    0.97597   0.98623   0.99201   0.99589   0.99944
 Alpha virt. eigenvalues --    1.00381   1.02137   1.02610   1.03688   1.05188
 Alpha virt. eigenvalues --    1.06227   1.06654   1.07138   1.08507   1.09390
 Alpha virt. eigenvalues --    1.09884   1.10639   1.11799   1.12388   1.12666
 Alpha virt. eigenvalues --    1.13139   1.14671   1.14960   1.15988   1.17049
 Alpha virt. eigenvalues --    1.18131   1.19328   1.20757   1.20857   1.21117
 Alpha virt. eigenvalues --    1.21996   1.22396   1.24295   1.25141   1.26045
 Alpha virt. eigenvalues --    1.27204   1.27916   1.28938   1.30749   1.31222
 Alpha virt. eigenvalues --    1.31788   1.32903   1.32997   1.33809   1.34569
 Alpha virt. eigenvalues --    1.35140   1.35253   1.36075   1.36565   1.38022
 Alpha virt. eigenvalues --    1.38728   1.39725   1.40663   1.40725   1.41969
 Alpha virt. eigenvalues --    1.43500   1.44100   1.44652   1.44892   1.46783
 Alpha virt. eigenvalues --    1.47598   1.48822   1.51634   1.51810   1.52862
 Alpha virt. eigenvalues --    1.53336   1.54068   1.54420   1.54829   1.55491
 Alpha virt. eigenvalues --    1.56046   1.56390   1.56931   1.58351   1.58947
 Alpha virt. eigenvalues --    1.59782   1.60021   1.61140   1.61524   1.62048
 Alpha virt. eigenvalues --    1.62616   1.62922   1.63665   1.64215   1.64581
 Alpha virt. eigenvalues --    1.65733   1.66243   1.66984   1.67763   1.68043
 Alpha virt. eigenvalues --    1.68633   1.70712   1.71687   1.72314   1.72626
 Alpha virt. eigenvalues --    1.73375   1.74503   1.74711   1.75370   1.76073
 Alpha virt. eigenvalues --    1.76541   1.76971   1.77598   1.78842   1.79034
 Alpha virt. eigenvalues --    1.79074   1.79807   1.80323   1.80524   1.81529
 Alpha virt. eigenvalues --    1.82474   1.83074   1.83710   1.84098   1.85795
 Alpha virt. eigenvalues --    1.86961   1.87700   1.88840   1.89813   1.91384
 Alpha virt. eigenvalues --    1.92686   1.94139   1.94584   1.94992   1.96273
 Alpha virt. eigenvalues --    1.96518   1.97084   1.99252   2.00532   2.01506
 Alpha virt. eigenvalues --    2.02842   2.03160   2.03932   2.05237   2.05570
 Alpha virt. eigenvalues --    2.06281   2.08231   2.08495   2.10204   2.10891
 Alpha virt. eigenvalues --    2.11374   2.12790   2.13087   2.14788   2.15054
 Alpha virt. eigenvalues --    2.15654   2.16458   2.17007   2.17476   2.18239
 Alpha virt. eigenvalues --    2.19219   2.20241   2.20768   2.22642   2.22952
 Alpha virt. eigenvalues --    2.23650   2.24788   2.26260   2.27617   2.28689
 Alpha virt. eigenvalues --    2.29147   2.30476   2.31246   2.32002   2.33277
 Alpha virt. eigenvalues --    2.33828   2.34624   2.35465   2.37959   2.39295
 Alpha virt. eigenvalues --    2.39783   2.41238   2.41968   2.42237   2.42853
 Alpha virt. eigenvalues --    2.43573   2.45423   2.46295   2.48100   2.48715
 Alpha virt. eigenvalues --    2.49201   2.50867   2.52160   2.53378   2.54163
 Alpha virt. eigenvalues --    2.55910   2.56813   2.57590   2.58987   2.59552
 Alpha virt. eigenvalues --    2.60654   2.61191   2.62177   2.62403   2.63049
 Alpha virt. eigenvalues --    2.64148   2.64879   2.65838   2.66843   2.67544
 Alpha virt. eigenvalues --    2.68126   2.68920   2.69095   2.70984   2.71072
 Alpha virt. eigenvalues --    2.72364   2.72772   2.73132   2.74130   2.74643
 Alpha virt. eigenvalues --    2.75305   2.75844   2.75999   2.76551   2.77161
 Alpha virt. eigenvalues --    2.77557   2.77936   2.78471   2.79097   2.79398
 Alpha virt. eigenvalues --    2.80843   2.80995   2.81332   2.82139   2.83121
 Alpha virt. eigenvalues --    2.84120   2.84942   2.86237   2.86473   2.87056
 Alpha virt. eigenvalues --    2.87771   2.88336   2.88985   2.90057   2.91021
 Alpha virt. eigenvalues --    2.91321   2.92094   2.93024   2.93217   2.93457
 Alpha virt. eigenvalues --    2.93938   2.94849   2.95061   2.95792   2.96369
 Alpha virt. eigenvalues --    2.97376   2.97980   2.98790   2.99805   3.00859
 Alpha virt. eigenvalues --    3.01302   3.02271   3.03016   3.04632   3.06509
 Alpha virt. eigenvalues --    3.07207   3.09173   3.10010   3.10802   3.11590
 Alpha virt. eigenvalues --    3.12013   3.13042   3.13916   3.14038   3.14892
 Alpha virt. eigenvalues --    3.15453   3.17327   3.17807   3.18822   3.19187
 Alpha virt. eigenvalues --    3.19532   3.20322   3.20811   3.21939   3.22696
 Alpha virt. eigenvalues --    3.23458   3.23596   3.24056   3.25030   3.25575
 Alpha virt. eigenvalues --    3.25771   3.26240   3.26412   3.27165   3.27274
 Alpha virt. eigenvalues --    3.27753   3.29428   3.30086   3.30906   3.31118
 Alpha virt. eigenvalues --    3.32550   3.32903   3.33970   3.34649   3.35263
 Alpha virt. eigenvalues --    3.36217   3.36626   3.38026   3.38417   3.38720
 Alpha virt. eigenvalues --    3.39494   3.40255   3.41305   3.41761   3.42289
 Alpha virt. eigenvalues --    3.42718   3.43212   3.43902   3.44268   3.45417
 Alpha virt. eigenvalues --    3.45942   3.46592   3.46710   3.47496   3.48142
 Alpha virt. eigenvalues --    3.49760   3.51117   3.51318   3.51802   3.52100
 Alpha virt. eigenvalues --    3.54101   3.54328   3.55136   3.55547   3.56444
 Alpha virt. eigenvalues --    3.56848   3.57462   3.57774   3.58690   3.59150
 Alpha virt. eigenvalues --    3.60097   3.60247   3.61282   3.61906   3.62825
 Alpha virt. eigenvalues --    3.63246   3.64176   3.64597   3.65590   3.65715
 Alpha virt. eigenvalues --    3.67128   3.67836   3.69000   3.69817   3.69943
 Alpha virt. eigenvalues --    3.71952   3.73155   3.75227   3.75605   3.76506
 Alpha virt. eigenvalues --    3.77601   3.78306   3.80335   3.80637   3.82201
 Alpha virt. eigenvalues --    3.84344   3.84510   3.86878   3.88224   3.89328
 Alpha virt. eigenvalues --    3.90029   3.91936   3.93085   3.94507   3.96382
 Alpha virt. eigenvalues --    3.98405   3.98867   4.00228   4.02500   4.03449
 Alpha virt. eigenvalues --    4.03698   4.04384   4.05772   4.06914   4.08285
 Alpha virt. eigenvalues --    4.11205   4.12651   4.13072   4.14773   4.16823
 Alpha virt. eigenvalues --    4.17426   4.18599   4.19981   4.20831   4.22675
 Alpha virt. eigenvalues --    4.23702   4.24369   4.24801   4.26548   4.28261
 Alpha virt. eigenvalues --    4.28446   4.29973   4.31066   4.32131   4.32468
 Alpha virt. eigenvalues --    4.32988   4.34076   4.34483   4.34939   4.36020
 Alpha virt. eigenvalues --    4.36206   4.38075   4.38448   4.39242   4.40791
 Alpha virt. eigenvalues --    4.42742   4.43530   4.43965   4.44405   4.46399
 Alpha virt. eigenvalues --    4.46887   4.47973   4.50204   4.53916   4.55329
 Alpha virt. eigenvalues --    4.57928   4.61442   4.62894   4.65783   4.66757
 Alpha virt. eigenvalues --    4.70294   4.70515   4.75089   4.76048   4.77055
 Alpha virt. eigenvalues --    4.80689   4.81644   4.82751   4.85177   4.86221
 Alpha virt. eigenvalues --    4.86786   4.88918   4.90241   4.95131   4.96856
 Alpha virt. eigenvalues --    4.97564   4.98886   4.99816   5.01971   5.02396
 Alpha virt. eigenvalues --    5.04543   5.05576   5.09398   5.11366   5.11881
 Alpha virt. eigenvalues --    5.15296   5.18984   5.20403   5.21944   5.22803
 Alpha virt. eigenvalues --    5.26134   5.26448   5.27575   5.31525   5.32291
 Alpha virt. eigenvalues --    5.33472   5.34348   5.35438   5.35966   5.40568
 Alpha virt. eigenvalues --    5.41129   5.42607   5.47426   5.50918   5.52549
 Alpha virt. eigenvalues --    5.53448   5.55680   5.59201   5.59655   5.62758
 Alpha virt. eigenvalues --    5.63568   5.66880   5.70384   5.73482   5.78088
 Alpha virt. eigenvalues --    5.80483   5.83422   5.94913   5.96848   6.09744
 Alpha virt. eigenvalues --    6.19647   6.43232   6.57352   6.76324   6.85933
 Alpha virt. eigenvalues --    6.97098   7.18596   7.28560  22.25359  22.31553
 Alpha virt. eigenvalues --   22.50784  22.54867  22.68621  22.73824  22.73910
 Alpha virt. eigenvalues --   22.75302  22.89211  22.92816  22.95984  22.97522
 Alpha virt. eigenvalues --   23.03125  23.09990  23.34516  23.42270  23.62937
 Alpha virt. eigenvalues --   32.26102  32.61322  44.17335
          Condensed to atoms (all electrons):
               1          2          3          4          5          6
     1  C    6.299386   0.263759  -0.217302   0.254027   0.002468  -0.000806
     2  C    0.263759   4.550374   0.606827  -0.069217   0.002222  -0.000023
     3  O   -0.217302   0.606827   8.219304   0.026004   0.000167  -0.000013
     4  C    0.254027  -0.069217   0.026004   5.708572  -0.012300   0.003589
     5  C    0.002468   0.002222   0.000167  -0.012300   4.848764   0.408513
     6  H   -0.000806  -0.000023  -0.000013   0.003589   0.408513   0.510467
     7  H   -0.000719   0.001043   0.000416   0.010836   0.416291  -0.021772
     8  H    0.001854  -0.000395  -0.000063  -0.022612   0.417651  -0.021853
     9  N   -0.082687   0.001367  -0.019583   0.098416   0.237192  -0.022456
    10  H   -0.000840  -0.007238   0.037479  -0.052453  -0.021950  -0.004687
    11  H    0.006515   0.002838  -0.000157  -0.001073  -0.019074  -0.004739
    12  C   -0.022449  -0.000543   0.015163  -0.033589   0.015871  -0.000847
    13  C   -0.030355   0.001764   0.000676  -0.072056  -0.004616   0.000191
    14  C    0.003426   0.000037   0.000001  -0.004197  -0.001342   0.000066
    15  C   -0.000747  -0.000012  -0.000000   0.000995  -0.000002  -0.000018
    16  C    0.002992   0.000017  -0.000005  -0.002028   0.000186   0.000029
    17  C    0.012367  -0.001755  -0.001129  -0.072878  -0.000575   0.000166
    18  H   -0.006725  -0.000020   0.000004   0.016582   0.000458   0.000005
    19  H    0.000032  -0.000000   0.000000  -0.000293  -0.000009   0.000000
    20  H   -0.000002   0.000000   0.000000   0.000034   0.000003  -0.000000
    21  H   -0.000014   0.000001   0.000000  -0.000680  -0.000002   0.000000
    22  H    0.000881  -0.000309  -0.000031  -0.001456  -0.000078  -0.000013
    23  H   -0.060842  -0.002241   0.020993   0.456174  -0.000721  -0.000613
    24  C    0.180336  -0.033041   0.009947  -0.191226  -0.000094  -0.000037
    25  C   -0.159752  -0.009953  -0.003484   0.037242  -0.000113   0.000019
    26  C    0.012756   0.001602  -0.000041  -0.000934   0.000005  -0.000000
    27  C   -0.005710  -0.000737  -0.000008   0.001445   0.000001   0.000000
    28  C    0.007810   0.000269   0.000030  -0.002351  -0.000002  -0.000000
    29  C   -0.106463  -0.006743  -0.000403  -0.001594  -0.000096   0.000005
    30  H    0.001745  -0.002073  -0.000468  -0.000863   0.000009  -0.000003
    31  H   -0.000235   0.000096   0.000002  -0.000044  -0.000000   0.000000
    32  H    0.000059  -0.000001   0.000000   0.000008  -0.000000   0.000000
    33  H   -0.000568  -0.000005  -0.000000  -0.000078   0.000000  -0.000000
    34  H    0.006562   0.000211  -0.000063   0.001812  -0.000004   0.000000
    35  N   -0.175253   0.456556  -0.109494   0.030326   0.000046   0.000001
    36  C    0.014771  -0.043820   0.010388  -0.002083  -0.000012   0.000001
    37  H   -0.019970  -0.039492   0.004426  -0.001267   0.000000  -0.000000
    38  H   -0.000494   0.005755   0.005462  -0.000841  -0.000002  -0.000001
    39  H    0.002219   0.006564   0.002046  -0.000052  -0.000000   0.000000
    40  H    0.000698  -0.020315   0.004653   0.000437   0.000001   0.000000
               7          8          9         10         11         12
     1  C   -0.000719   0.001854  -0.082687  -0.000840   0.006515  -0.022449
     2  C    0.001043  -0.000395   0.001367  -0.007238   0.002838  -0.000543
     3  O    0.000416  -0.000063  -0.019583   0.037479  -0.000157   0.015163
     4  C    0.010836  -0.022612   0.098416  -0.052453  -0.001073  -0.033589
     5  C    0.416291   0.417651   0.237192  -0.021950  -0.019074   0.015871
     6  H   -0.021772  -0.021853  -0.022456  -0.004687  -0.004739  -0.000847
     7  H    0.515195  -0.023002  -0.043553  -0.005118   0.006297  -0.007641
     8  H   -0.023002   0.511076  -0.033346   0.005805  -0.005538   0.014941
     9  N   -0.043553  -0.033346   6.540048   0.362628   0.344592  -0.054004
    10  H   -0.005118   0.005805   0.362628   0.420836  -0.022052   0.017947
    11  H    0.006297  -0.005538   0.344592  -0.022052   0.423816  -0.009623
    12  C   -0.007641   0.014941  -0.054004   0.017947  -0.009623   5.507087
    13  C    0.000296   0.000764   0.011958  -0.000327   0.002484   0.213633
    14  C   -0.000091  -0.000688   0.006616  -0.000027  -0.000722   0.067199
    15  C    0.000065   0.000309  -0.000572  -0.000022   0.000148  -0.127577
    16  C   -0.000422   0.000047   0.001897   0.000082  -0.000274   0.065717
    17  C    0.000160  -0.000857   0.000858  -0.000768   0.001091   0.305134
    18  H   -0.000092   0.000507  -0.002577   0.000118   0.000032  -0.083778
    19  H    0.000001  -0.000006   0.000020  -0.000000  -0.000000   0.014082
    20  H    0.000001   0.000000  -0.000003  -0.000000   0.000001  -0.004337
    21  H   -0.000009   0.000003   0.000011   0.000000  -0.000001   0.016581
    22  H    0.000301   0.000110  -0.000325  -0.000008   0.000035  -0.076057
    23  H    0.002889   0.000690  -0.065997  -0.007305   0.004089  -0.050754
    24  C    0.000057   0.000267  -0.015665   0.003146   0.001476  -0.019483
    25  C   -0.000013  -0.000020   0.003415  -0.001138  -0.000390  -0.006767
    26  C    0.000000  -0.000001  -0.000268  -0.000007   0.000095  -0.001269
    27  C    0.000000  -0.000000   0.000030  -0.000011   0.000004   0.000588
    28  C   -0.000001   0.000000   0.000014   0.000015  -0.000026   0.000369
    29  C   -0.000001  -0.000024   0.002543  -0.000086  -0.000056   0.022613
    30  H    0.000001   0.000005  -0.000143  -0.000020   0.000342   0.000607
    31  H   -0.000000  -0.000000   0.000002   0.000002  -0.000005   0.000006
    32  H    0.000000  -0.000000   0.000000  -0.000000  -0.000000  -0.000001
    33  H    0.000000   0.000000  -0.000002  -0.000000   0.000001   0.000015
    34  H   -0.000001  -0.000001   0.000204   0.000005  -0.000020  -0.000401
    35  N    0.000006  -0.000003   0.000253  -0.000364  -0.000120   0.000565
    36  C   -0.000001  -0.000000   0.000136  -0.000016  -0.000011  -0.000168
    37  H    0.000000   0.000000  -0.000006  -0.000081   0.000007  -0.000398
    38  H    0.000001   0.000000  -0.000089   0.000251   0.000023  -0.000001
    39  H   -0.000000   0.000000   0.000001  -0.000006  -0.000000  -0.000005
    40  H   -0.000001   0.000000   0.000036  -0.000127  -0.000004  -0.000007
              13         14         15         16         17         18
     1  C   -0.030355   0.003426  -0.000747   0.002992   0.012367  -0.006725
     2  C    0.001764   0.000037  -0.000012   0.000017  -0.001755  -0.000020
     3  O    0.000676   0.000001  -0.000000  -0.000005  -0.001129   0.000004
     4  C   -0.072056  -0.004197   0.000995  -0.002028  -0.072878   0.016582
     5  C   -0.004616  -0.001342  -0.000002   0.000186  -0.000575   0.000458
     6  H    0.000191   0.000066  -0.000018   0.000029   0.000166   0.000005
     7  H    0.000296  -0.000091   0.000065  -0.000422   0.000160  -0.000092
     8  H    0.000764  -0.000688   0.000309   0.000047  -0.000857   0.000507
     9  N    0.011958   0.006616  -0.000572   0.001897   0.000858  -0.002577
    10  H   -0.000327  -0.000027  -0.000022   0.000082  -0.000768   0.000118
    11  H    0.002484  -0.000722   0.000148  -0.000274   0.001091   0.000032
    12  C    0.213633   0.067199  -0.127577   0.065717   0.305134  -0.083778
    13  C    5.365556   0.327024   0.068100  -0.113691   0.056799   0.458406
    14  C    0.327024   5.062694   0.367922   0.047588  -0.090115  -0.036557
    15  C    0.068100   0.367922   5.039299   0.376874   0.053559   0.009671
    16  C   -0.113691   0.047588   0.376874   5.044719   0.370856  -0.003371
    17  C    0.056799  -0.090115   0.053559   0.370856   5.177379   0.008177
    18  H    0.458406  -0.036557   0.009671  -0.003371   0.008177   0.485931
    19  H   -0.061853   0.459309  -0.057909   0.011467  -0.004138  -0.006520
    20  H    0.013365  -0.059127   0.455593  -0.058640   0.011957  -0.000057
    21  H   -0.005252   0.012901  -0.060976   0.464505  -0.067353   0.000017
    22  H    0.017121  -0.005703   0.012779  -0.060395   0.465070   0.000014
    23  H    0.009917  -0.001815   0.000698  -0.002272   0.002302   0.000383
    24  C    0.021022  -0.001340   0.000909  -0.001912  -0.000758  -0.005542
    25  C   -0.002649   0.001502  -0.000097   0.000112  -0.000998  -0.000418
    26  C    0.002321  -0.000477   0.000068  -0.000046   0.000098   0.001598
    27  C   -0.001350   0.000130  -0.000082   0.000058  -0.000121   0.000150
    28  C    0.004637   0.000461  -0.000050  -0.000092   0.000155  -0.000406
    29  C   -0.032748   0.008402  -0.001888   0.002242  -0.002024  -0.003968
    30  H   -0.000471  -0.000012  -0.000002   0.000000  -0.000006  -0.000105
    31  H   -0.000015   0.000001   0.000000  -0.000000   0.000001   0.000016
    32  H   -0.000011   0.000002  -0.000001   0.000000  -0.000001  -0.000011
    33  H    0.000137  -0.000096   0.000024  -0.000019   0.000058   0.000015
    34  H   -0.005072   0.000407   0.000086   0.000960  -0.001093   0.000013
    35  N    0.000143   0.000001  -0.000000  -0.000000  -0.000079   0.000016
    36  C   -0.000001   0.000000  -0.000000   0.000000   0.000008  -0.000001
    37  H   -0.000006  -0.000002   0.000000  -0.000001   0.000020   0.000003
    38  H   -0.000002  -0.000000   0.000000  -0.000000   0.000001  -0.000000
    39  H   -0.000000  -0.000000  -0.000000   0.000000   0.000000   0.000000
    40  H    0.000000   0.000000  -0.000000   0.000000  -0.000001   0.000000
              19         20         21         22         23         24
     1  C    0.000032  -0.000002  -0.000014   0.000881  -0.060842   0.180336
     2  C   -0.000000   0.000000   0.000001  -0.000309  -0.002241  -0.033041
     3  O    0.000000   0.000000   0.000000  -0.000031   0.020993   0.009947
     4  C   -0.000293   0.000034  -0.000680  -0.001456   0.456174  -0.191226
     5  C   -0.000009   0.000003  -0.000002  -0.000078  -0.000721  -0.000094
     6  H    0.000000  -0.000000   0.000000  -0.000013  -0.000613  -0.000037
     7  H    0.000001   0.000001  -0.000009   0.000301   0.002889   0.000057
     8  H   -0.000006   0.000000   0.000003   0.000110   0.000690   0.000267
     9  N    0.000020  -0.000003   0.000011  -0.000325  -0.065997  -0.015665
    10  H   -0.000000  -0.000000   0.000000  -0.000008  -0.007305   0.003146
    11  H   -0.000000   0.000001  -0.000001   0.000035   0.004089   0.001476
    12  C    0.014082  -0.004337   0.016581  -0.076057  -0.050754  -0.019483
[...]
 04053,-0.00000800,0.00002483,-0.00000352,0.00001185,0.00004356,-0.0000
 1059,-0.00001073,-0.00003445,0.00001051,-0.05883287,-0.14809170,0.0047
 6111,-0.04293506,0.58612395,0.00165677,0.00176342,0.00391728,-0.010961
 70,-0.00196731,-0.00310144,-0.00023648,-0.00101514,-0.00401691,-0.0017
 8193,0.00081813,0.00007413,-0.00020765,-0.00004614,0.00026375,0.000104
 59,-0.00010647,0.00000262,0.00000180,-0.00000678,-0.00003841,0.0000122
 6,0.00000736,0.00000362,0.00059444,-0.00091658,0.00102102,0.00013312,0
 .00005900,0.00002908,0.00000074,-0.00001229,0.00001338,-0.00026070,0.0
 0031018,-0.00033142,-0.00005723,-0.00002185,0.00000841,0.00004868,0.00
 000597,-0.00001314,-0.00001599,0.00001882,0.00003097,0.00000427,-0.000
 06921,-0.00000820,0.00006163,0.00002425,0.00001836,-0.00001132,-0.0000
 2390,-0.00001863,0.00000338,0.00000209,0.00000048,0.00000278,0.0000023
 4,-0.00000098,0.00000342,0.00000617,-0.00000395,-0.00001290,0.00000980
 ,-0.00000518,0.00002355,-0.00023222,0.00024390,0.00000874,-0.00048121,
 0.00004033,-0.00026092,-0.00021590,-0.00032599,-0.00002160,0.00036039,
 -0.00008192,-0.00012275,-0.00007605,0.00026361,0.00005932,-0.00023993,
 -0.00013328,0.00007739,0.00033413,-0.00015500,0.00001574,-0.00002948,0
 .00006848,-0.00000178,0.00001147,-0.00000926,-0.00000133,-0.00000706,0
 .00000700,-0.00000694,-0.00000404,-0.00000480,-0.00000129,-0.00000919,
 0.00002369,0.01060147,0.00642598,-0.05211521,0.00815478,0.00033971,0.5
 5896094,-0.00217487,-0.00043411,-0.00019126,0.01294494,0.02947345,0.00
 411896,-0.00688352,0.00574997,-0.00274950,0.00030631,-0.00022743,0.000
 18017,0.00000612,-0.00007591,0.00001151,0.00000115,0.00000302,0.000000
 82,0.00000758,0.00000499,0.00000914,-0.00002157,0.00001654,-0.00000270
 ,-0.00014595,-0.00013375,-0.00009474,0.00032430,0.00003620,0.00035721,
 -0.00004299,0.00000491,-0.00002471,0.00003142,-0.00005961,-0.00003525,
 0.00004987,-0.00001031,0.00006087,-0.00002171,-0.00003622,0.00000937,0
 .00000611,-0.00000530,-0.00002736,0.00002462,0.00001620,-0.00000887,-0
 .00001238,-0.00000431,0.00003105,-0.00000844,0.00000201,-0.00005485,0.
 00000108,0.00000197,0.00000244,0.00000401,0.00000180,-0.00000357,0.000
 00361,0.00000062,-0.00000193,0.00000049,-0.00000283,-0.00000477,0.0001
 1875,-0.00001640,-0.00006201,-0.00157504,0.00021874,-0.00036211,0.0001
 8049,-0.00072566,-0.00101598,0.00002878,-0.00059711,0.00008281,0.00020
 993,0.00031650,-0.00036952,-0.00017845,0.00041586,0.00020282,-0.000278
 55,-0.00101745,0.00066047,-0.00011490,-0.00004823,-0.00010660,-0.00005
 858,0.00007502,0.00005370,0.00003188,0.00007058,0.00001134,0.00002119,
 0.00007461,-0.00003579,0.00008705,0.00001658,-0.00007547,-0.07065844,0
 .00312390,-0.00459890,0.00143714,-0.02925454,-0.00148073,0.07085992,-0
 .00301102,-0.00005216,-0.00009415,0.00159317,-0.01465175,-0.00078381,0
 .00248171,0.00126806,0.00037104,0.00095310,-0.00157361,0.00113961,0.00
 017104,0.00001794,-0.00019173,-0.00008438,0.00008528,-0.00000481,-0.00
 000767,0.00000199,0.00002858,-0.00001163,-0.00000543,0.00000122,-0.000
 27430,0.00070423,-0.00084083,-0.00009819,-0.00007611,-0.00007226,0.000
 01333,0.00003002,0.00000272,0.00007586,0.00014204,-0.00002008,-0.00002
 432,0.00005541,0.00003400,-0.00000750,-0.00002302,0.00002290,-0.000041
 93,-0.00003325,-0.00002074,0.00002359,0.00001263,0.00001257,-0.0000852
 2,-0.00004451,-0.00003026,0.00001827,0.00001384,-0.00001806,-0.0000098
 6,-0.00000785,-0.00000560,-0.00000660,-0.00000057,-0.00000243,-0.00001
 130,-0.00000374,0.00000737,0.00000659,0.00000850,-0.00000215,-0.000085
 37,0.00011174,-0.00015530,-0.00163144,0.00095601,0.00030529,-0.0004320
 6,-0.00103091,-0.00137760,0.00002761,0.00007952,-0.00006348,-0.0001071
 9,-0.00019595,0.00021950,0.00009239,-0.00019543,-0.00018354,-0.0000045
 7,0.00003368,0.00001344,-0.00009217,-0.00013576,0.00018445,-0.00003616
 ,0.00001753,-0.00000859,0.00002621,0.00001348,0.00002266,0.00000955,-0
 .00000236,-0.00000775,0.00003584,0.00002669,-0.00004579,0.00156516,-0.
 46403561,-0.00802123,0.00248716,-0.00559357,-0.00076286,-0.00329100,0.
 48186023,0.00054262,0.00015354,-0.00114778,-0.00120392,0.00848759,-0.0
 0735013,-0.00225479,0.00020144,0.00669385,-0.00019268,0.00041858,-0.00
 088390,-0.00000320,0.00005092,0.00005378,0.00002108,-0.00001740,0.0000
 0167,-0.00000662,-0.00000509,-0.00001742,0.00001390,-0.00000731,0.0000
 0352,0.00015551,-0.00001238,0.00012494,-0.00020848,0.00004229,-0.00017
 499,0.00000816,0.00000358,0.00004350,0.00003072,-0.00018354,0.00019918
 ,0.00009679,-0.00002372,0.00002316,-0.00003569,-0.00000842,-0.00000730
 ,0.00004386,0.00001459,-0.00002459,0.00000755,0.00002538,0.00000052,0.
 00000229,0.00003017,0.00003139,-0.00001415,-0.00000669,-0.00002462,0.0
 0000723,0.00000815,0.00000489,0.00000783,0.00000004,-0.00000080,0.0000
 1074,-0.00000136,-0.00000434,-0.00000020,-0.00001216,-0.00000039,0.000
 02260,-0.00013295,-0.00007322,-0.00072015,0.00015272,0.00041552,-0.000
 22015,0.00012907,0.00029292,0.00008052,-0.00121301,0.00011943,0.000442
 84,0.00027644,-0.00069198,-0.00012040,0.00077377,0.00026726,-0.0001929
 6,-0.00061285,0.00018317,-0.00032549,0.00007989,-0.00084736,0.00000714
 ,0.00004278,0.00007753,0.00000581,0.00008199,-0.00004165,0.00003269,0.
 00004329,-0.00001573,0.00001341,-0.00000217,-0.00009786,-0.00117140,-0
 .01959687,0.00218851,0.00077622,0.00115071,-0.00596123,0.00498704,0.01
 018649,0.00749312,-0.00276331,-0.00042704,-0.00102492,0.00643001,-0.00
 480509,0.00265710,0.00025260,0.00232297,-0.00044247,0.00122031,-0.0014
 3290,0.00095085,0.00019449,-0.00000060,-0.00022051,-0.00009529,0.00009
 878,-0.00000684,-0.00000410,0.00000389,0.00003489,-0.00001773,0.000000
 39,-0.00000041,-0.00041112,0.00074333,-0.00092319,-0.00004207,-0.00007
 571,0.00007325,-0.00000601,0.00001212,-0.00000082,0.00016536,0.0000413
 8,0.00002948,-0.00002738,0.00004104,-0.00000565,-0.00002292,-0.0000119
 4,0.00002512,-0.00003251,-0.00003665,-0.00002390,0.00001640,0.00002872
 ,0.00001665,-0.00008517,-0.00004867,-0.00003035,0.00001478,0.00002411,
 0.00001323,-0.00001020,-0.00001017,-0.00000484,-0.00000843,-0.00000131
 ,-0.00000058,-0.00001274,-0.00000363,0.00000729,0.00001003,0.00000516,
 0.00000106,-0.00002917,0.00018537,-0.00015688,-0.00007071,0.00054549,-
 0.00008186,0.00007789,-0.00014698,0.00004464,0.00002286,0.00007526,-0.
 00002277,-0.00003040,-0.00008053,0.00002620,-0.00000122,-0.00002810,-0
 .00002960,0.00002794,-0.00004192,-0.00000751,0.00001211,0.00001386,0.0
 0002194,-0.00000009,-0.00001921,-0.00001814,0.00000279,-0.00001264,0.0
 0000075,-0.00000557,-0.00001830,0.00000654,0.00000644,0.00001832,-0.00
 000467,-0.01757250,-0.01867344,0.02550218,-0.05123812,-0.01085110,0.02
 621028,-0.00200211,-0.00002424,0.00212320,0.06052155,-0.00160087,-0.00
 005715,-0.00015036,0.00470584,-0.00189872,0.00001259,-0.00090822,0.001
 16970,0.00006664,0.00062072,-0.00078486,0.00051816,0.00012984,-0.00002
 309,-0.00012301,-0.00005547,0.00006120,-0.00000744,-0.00000421,0.00000
 159,0.00001961,-0.00001724,0.00000514,0.00000087,-0.00026667,0.0003845
 9,-0.00052411,0.00004832,-0.00005250,0.00013038,-0.00001410,0.00001158
 ,0.00001353,0.00009223,0.00005011,0.00000361,-0.00001960,0.00002149,0.
 00000100,-0.00001639,-0.00000556,0.00001446,-0.00002361,-0.00002350,-0
 .00001530,0.00001089,0.00001304,0.00001264,-0.00005332,-0.00003844,-0.
 00001933,0.00001007,0.00001485,0.00000892,-0.00000755,-0.00000695,-0.0
 0000374,-0.00000589,-0.00000126,-0.00000027,-0.00000942,-0.00000187,0.
 00000477,0.00000671,0.00000503,-0.00000049,-0.00002791,0.00006418,-0.0
 0013220,-0.00004238,0.00029637,0.00001229,-0.00000714,-0.00007299,0.00
 001859,0.00000898,0.00004385,-0.00001253,-0.00000942,-0.00005242,0.000
 01339,-0.00000335,-0.00002192,-0.00000436,0.00002220,-0.00004737,-0.00
 004617,0.00001239,0.00000743,0.00002769,0.00000253,-0.00001662,-0.0000
 1327,0.00000086,-0.00001070,-0.00000041,-0.00000505,-0.00001707,0.0000
 0430,0.00000191,0.00001198,-0.00000215,-0.01240731,-0.00983793,0.01237
 734,-0.01178322,-0.09277409,0.09450697,-0.00155673,0.00007099,0.001790
 30,0.02357596,0.10137943,0.00128559,-0.00024351,-0.00043138,-0.0026047
 5,0.00257695,0.00052972,-0.00041731,-0.00149866,-0.00008484,-0.0004127
 6,0.00059285,-0.00045095,-0.00009624,0.00000836,0.00007946,0.00003787,
 -0.00004221,0.00000557,0.00000606,-0.00000020,-0.00001239,0.00000830,-
 0.00000175,-0.00000194,0.00014177,-0.00025797,0.00037020,0.00002083,0.
 00001949,-0.00003362,0.00000843,-0.00002004,-0.00001096,-0.00004967,-0
 .00005637,0.00000968,0.00001175,-0.00001966,-0.00000119,0.00000937,0.0
 0000254,-0.00001062,0.00001823,0.00001654,0.00001002,-0.00000994,-0.00
 000619,-0.00000743,0.00003558,0.00002469,0.00001315,-0.00000675,-0.000
 00775,-0.00000390,0.00000473,0.00000467,0.00000257,0.00000380,0.000000
 85,0.00000029,0.00000618,0.00000092,-0.00000319,-0.00000391,-0.0000035
 6,0.00000034,0.00005291,-0.00002661,0.00010015,-0.00003187,-0.00012053
 ,-0.00005547,0.00003359,0.00003853,0.00003678,0.00000203,-0.00007828,0
 .00001648,0.00002140,0.00004203,-0.00004296,0.00000071,0.00004600,0.00
 002401,-0.00003130,0.00000481,0.00002404,-0.00001171,0.00002336,-0.000
 04509,0.00000624,0.00000987,0.00001577,-0.00000375,0.00000917,-0.00000
 370,0.00000574,0.00001092,-0.00000114,-0.00000241,-0.00001077,0.000000
 81,0.00715228,0.00135732,0.00864011,0.02784878,0.09546294,-0.25700414,
 0.00015007,-0.00064377,-0.00087799,-0.03453769,-0.10744911,0.27351701,
 -0.00182815,0.00105168,-0.00008234,-0.00062823,-0.00569489,0.00070329,
 0.00052047,0.00030257,-0.00013574,0.00007837,-0.00101432,0.00040512,0.
 00011084,-0.00002466,-0.00009532,-0.00004611,0.00005260,-0.00000713,-0
 .00000325,0.00000119,0.00001799,-0.00001399,0.00000354,0.00000111,-0.0
 0017786,0.00031664,-0.00042896,0.00003558,-0.00005412,0.00009776,-0.00
 000923,0.00000959,0.00001569,0.00003762,0.00015713,-0.00001426,-0.0000
 3346,0.00001595,0.00000851,-0.00000897,-0.00001134,0.00001227,-0.00002
 992,-0.00002375,-0.00001234,0.00000850,0.00000882,0.00002138,-0.000072
 65,-0.00005482,-0.00002870,0.00001172,0.00001543,0.00000428,-0.0000095
 2,-0.00000847,-0.00000439,-0.00000694,-0.00000105,-0.00000075,-0.00001
 298,-0.00000307,0.00000560,0.00000725,0.00000893,-0.00000064,0.0000046
 0,0.00006482,-0.00008262,-0.00004353,0.00036131,0.00003928,0.00003861,
 -0.00011376,-0.00001454,0.00001212,0.00005465,-0.00000796,-0.00001355,
 -0.00007043,0.00001866,-0.00000529,-0.00002061,-0.00000972,0.00000712,
 -0.00008477,-0.00002946,-0.00000328,0.00000900,0.00002425,0.00000077,-
 0.00001453,-0.00001466,0.00000089,-0.00001039,0.00000023,-0.00000482,-
 0.00001743,0.00000469,0.00000404,0.00001085,-0.00000081,-0.02995554,0.
 02215216,-0.00539735,-0.18626364,0.12678961,-0.03124403,0.00093096,0.0
 0029254,-0.00019347,0.00452787,-0.00329461,-0.00003431,0.21082212,-0.0
 0028347,0.00063003,0.00000682,-0.00266027,-0.00376661,0.00003729,0.002
 17079,0.00105289,0.00016340,-0.00019425,-0.00010873,-0.00004343,-0.000
 00864,0.00001725,0.00000204,0.00000161,-0.00000367,0.00000086,-0.00000
 080,-0.00000125,-0.00000142,0.00000544,-0.00000387,0.00000048,0.000044
 20,-0.00000172,0.00004165,-0.00006021,0.00000850,-0.00008041,0.0000102
 8,-0.00000199,0.00000083,-0.00003973,0.00005848,0.00000770,0.00000782,
 -0.00000209,0.00000350,0.00000051,-0.00000116,0.00000134,-0.00000062,0
 .00000014,-0.00000038,0.00000068,-0.00000235,0.00000450,-0.00000809,-0
 .00000642,-0.00000129,0.00000028,-0.00000029,-0.00000301,0.00000012,0.
 00000013,-0.00000002,0.00000008,0.00000023,-0.00000029,-0.00000085,-0.
 00000024,0.00000002,-0.00000091,0.00000136,0.00000004,-0.00001395,0.00
 001149,0.00001562,0.00005569,0.00005358,0.00002578,0.00003772,0.000012
 74,0.00000352,0.00000146,-0.00002691,0.00000753,0.00000872,0.00000530,
 -0.00001666,-0.00000260,0.00001743,0.00000594,-0.00001178,-0.00002488,
 0.00001804,-0.00000505,0.00000120,-0.00000637,-0.00000114,0.00000109,0
 .00000070,-0.00000003,0.00000149,-0.00000043,0.00000103,0.00000168,0.0
 0000007,0.00000016,-0.00000073,-0.00000116,-0.02052822,0.01212828,-0.0
 0359936,0.13868190,-0.17851387,0.03187543,0.00010961,0.00160808,-0.000
 05252,0.00813563,-0.00792078,0.00041288,-0.14014657,0.18805085,-0.0000
 7190,0.00003545,0.00023923,0.00024668,0.00001313,0.00010100,0.00000875
 ,-0.00005275,0.00046897,0.00001897,-0.00004679,0.00006752,0.00000413,0
 .00000091,-0.00000390,-0.00000185,0.00000132,-0.00000015,-0.00000005,-
 0.00000025,0.00000053,-0.00000006,-0.00000061,0.00000042,0.00000220,0.
 00001531,-0.00001676,-0.00000551,0.00000123,-0.00000948,0.00000193,0.0
 0000225,-0.00000085,0.00001001,0.00001426,-0.00003470,-0.00000499,-0.0
 0000194,0.00000013,-0.00000151,-0.00000278,0.00000252,-0.00000215,-0.0
 0000278,-0.00000253,0.00000387,0.00000060,0.00000026,-0.00000076,-0.00
 000141,0.00000362,-0.00000101,0.00000152,-0.00000112,-0.00000054,-0.00
 000061,-0.00000016,-0.00000036,0.00000016,-0.00000017,-0.00000020,0.00
 000041,0.00000014,-0.00000017,0.00000045,0.00000002,0.00000480,-0.0000
 1240,0.00000249,0.00000799,-0.00000962,-0.00003104,0.00000510,0.000016
 98,0.00001443,0.00000285,-0.00001589,0.00000532,0.00000365,0.00000592,
 -0.00000964,0.00000069,0.00000406,0.00000603,0.00000435,-0.00000052,-0
 .00000450,0.00000078,0.00000559,0.00000107,-0.00000061,-0.00000184,-0.
 00000080,0.00000012,0.00000019,-0.00000025,0.00000046,0.00000020,-0.00
 000023,-0.00000123,0.00000140,-0.00000141,0.00132468,-0.00131186,-0.00
 087078,-0.03316659,0.03150522,-0.05635189,-0.00022104,-0.00006911,0.00
 071173,-0.02099796,0.01921286,-0.00296987,0.03539468,-0.03433885,0.053
 44549,-0.00184856,-0.00004300,0.00071183,0.00396462,-0.00359579,0.0000
 0528,0.00040269,0.00200703,0.00008218,0.00052810,-0.00095555,0.0008974
 2,0.00011375,-0.00000077,-0.00009499,-0.00004728,0.00005157,-0.0000053
 7,-0.00000643,0.00000011,0.00001530,-0.00000688,-0.00000083,0.00000265
 ,-0.00007894,0.00039827,-0.00051182,-0.00005605,-0.00002645,-0.0000118
 9,0.00000137,0.00001403,0.00001667,0.00009330,0.00010887,-0.00006872,-
 0.00003980,0.00003123,-0.00000977,-0.00000477,-0.00000331,0.00001842,-
 0.00003501,-0.00002792,-0.00001200,0.00001948,0.00000502,0.00000963,-0
 .00005439,-0.00003076,-0.00001631,0.00000933,0.00001069,0.00000754,-0.
 00000701,-0.00000729,-0.00000418,-0.00000598,-0.00000071,-0.00000049,-
 0.00000915,-0.00000029,0.00000481,0.00000448,0.00000693,-0.00000026,-0
 .00005908,0.00005068,-0.00010150,-0.00006654,0.00019315,-0.00001634,-0
 .00009775,-0.00021613,-0.00012841,0.00000298,0.00023864,-0.00004605,-0
 .00008483,-0.00010426,0.00014762,0.00002255,-0.00014230,-0.00009149,0.
 00008884,0.00013524,-0.00007970,0.00001555,-0.00000798,0.00006458,-0.0
 0000151,-0.00001235,-0.00002213,0.00000233,-0.00001612,0.00000493,-0.0
 0001080,-0.00001818,0.00000235,0.00000660,0.00001158,0.00000747,-0.009
 67337,-0.02846619,-0.02039937,-0.04700074,-0.00038287,-0.00109186,-0.0
 0344020,-0.00049501,-0.00257601,0.00098544,0.00289027,0.00138212,0.002
 01148,0.01469345,0.01743181,0.05436219,-0.00100262,0.00003647,-0.00017
 444,0.00381731,-0.00250810,0.00105047,0.00006106,0.00187647,0.00017356
 ,0.00041682,-0.00053013,0.00044640,0.00007201,-0.00002336,-0.00009136,
 -0.00003774,0.00003885,-0.00000424,0.00000059,0.00000167,0.00001645,-0
 .00001310,0.00000425,-0.00000098,-0.00022320,0.00022430,-0.00031284,0.
 00006730,-0.00005002,0.00011459,-0.00000765,0.00000520,-0.00000844,0.0
 0002204,0.00006866,-0.00004201,-0.00003117,0.00001888,0.00000264,-0.00
 000088,-0.00000339,0.00000754,-0.00002073,-0.00001390,-0.00000200,0.00
 000135,0.00000027,0.00000752,-0.00002690,-0.00002866,-0.00002128,0.000
 00898,0.00000966,0.00000812,-0.00000585,-0.00000571,-0.00000298,-0.000
 00485,-0.00000067,-0.00000007,-0.00000783,-0.00000123,0.00000360,0.000
 00404,0.00000560,-0.00000036,0.00000508,0.00007444,-0.00005261,-0.0001
 3068,0.00015816,-0.00007681,-0.00008501,-0.00018849,-0.00009630,0.0000
 0469,0.00018712,-0.00002279,-0.00006522,-0.00009847,0.00010521,0.00003
 040,-0.00010425,-0.00006114,0.00004734,0.00009175,-0.00008268,0.000018
 31,-0.00000766,0.00006542,0.00000135,-0.00001304,-0.00001841,0.0000010
 0,-0.00001469,0.00000381,-0.00000605,-0.00001753,0.00000574,-0.0000027
 7,0.00000977,0.00000731,-0.01012932,-0.01457894,-0.00708537,-0.0041122
 0,-0.17549209,-0.13063801,-0.00223617,0.00054371,-0.00225530,0.0008783
 8,0.01005324,0.00982124,-0.00101542,-0.01327468,-0.01496942,0.01370728
 ,0.19354654,-0.00031947,0.00017024,-0.00033156,0.00107495,-0.00247011,
 0.00080320,0.00125599,0.00126900,0.00011910,0.00011520,-0.00016765,0.0
 0010147,0.00001369,0.00000905,-0.00003311,-0.00001187,0.00000887,0.000
 00006,0.00000023,0.00000009,0.00000464,-0.00000035,-0.00000162,-0.0000
 0080,-0.00005334,0.00009576,-0.00007401,-0.00001475,-0.00001459,-0.000
 02431,0.00000809,-0.00000354,-0.00000574,0.00000212,0.00001627,0.00000
 278,0.00000016,0.00000398,0.00000008,-0.00000154,-0.00000211,0.0000038
 3,-0.00000284,-0.00000308,-0.00000202,0.00000099,0.00000175,0.00000211
 ,-0.00000757,-0.00000565,-0.00000355,0.00000142,0.00000299,0.00000070,
 -0.00000081,-0.00000083,-0.00000046,-0.00000088,0.00000003,-0.00000015
 ,-0.00000125,-0.00000036,0.00000073,0.00000069,0.00000069,0.00000017,-
 0.00001109,0.00003066,-0.00000923,-0.00000957,0.00007571,-0.00004419,0
 .00002555,-0.00002222,0.00001413,0.00000606,0.00001036,0.00000288,-0.0
 0000662,-0.00000830,0.00000508,0.00000424,-0.00000582,-0.00000756,0.00
 000602,0.00001420,0.00000605,-0.00000269,0.00000885,-0.00000107,0.0000
 0083,-0.00000110,-0.00000130,-0.00000111,-0.00000106,-0.00000063,0.000
 00047,-0.00000096,0.00000157,-0.00000119,0.00000126,-0.00000044,-0.004
 86080,0.00312181,0.00793891,-0.00414452,-0.13242984,-0.18531003,0.0005
 9788,0.00087413,-0.00068631,0.00079691,-0.02026669,-0.02134338,0.00106
 469,0.00550961,0.00523931,0.00447609,0.14418023,0.19363303\\0.00000806
 ,-0.00000333,-0.00000150,-0.00001766,0.00001154,0.00000182,-0.00000762
 ,-0.00000411,0.00000164,-0.00000859,0.00000490,-0.00000086,0.00000048,
 0.00000724,0.00000252,0.00000100,-0.00000170,0.00000206,0.00000137,-0.
 00000136,-0.00000384,-0.00000039,-0.00000046,-0.00000067,0.00000598,-0
 .00000353,-0.00000167,-0.00000251,-0.00000199,-0.00000078,0.00000086,0
 .00000197,0.00000350,0.00000293,0.00000117,-0.00000214,0.00000114,-0.0
 0000144,-0.00000316,0.00000085,0.00000143,-0.00000117,-0.00000142,-0.0
 0000070,-0.00000022,0.00000083,0.00000274,-0.00000183,0.00000178,0.000
 00527,0.00000755,-0.00000153,0.00000051,0.00000095,-0.00000002,0.00000
 165,0.00000032,0.00000009,0.00000207,-0.00000049,-0.00000077,0.0000010
 6,0.00000054,-0.00000169,-0.00000253,-0.00000411,0.00000024,-0.0000012
 6,-0.00000064,0.00000123,0.00000012,0.00000106,0.00000111,-0.00000074,
 -0.00000230,-0.00000554,0.00000202,0.00000756,-0.00000423,-0.00000022,
 0.00000393,0.00000165,-0.00000616,-0.00000464,-0.00000097,0.00000542,-
 0.00000098,-0.00000015,-0.00000032,-0.00000005,0.00000247,-0.00000183,
 -0.00000457,-0.00000104,0.00000073,0.00000024,-0.00000084,0.00000029,-
 0.00000006,-0.00000165,0.00000006,0.00000160,0.00001156,-0.00000202,-0
 .00000780,0.00000733,-0.00000267,0.00001374,0.00000125,-0.00000189,0.0
 0000560,0.00000500,-0.00000209,-0.00000402,-0.00000040,-0.00000079,-0.
 00000079,-0.00000016,-0.00000907,-0.00000633\\\@


 THE VALUE OF PHILOSOPHY IS, IN FACT, TO BE SOUGHT LARGELY IN ITS
 VERY UNCERTAINTY.  THE MAN WHO HAS NO TINCTURE OF PHILOSOPHY GOES
 THROUGH LIFE IMPRISONED IN THE PREJUDICES DERIVED FROM COMMON SENSE,
 FROM THE HABITUAL BELIEFS OF HIS AGE OR HIS NATION, AND FROM
 CONVICTIONS WHICH HAVE GROWN UP IN HIS MIND WITHOUT THE CO-OPERATION
 OR CONSENT OF HIS DELIBERATE REASON.  TO SUCH A MAN THE WORLD TENDS
 TO BE DEFINITE, FINITE, OBVIOUS; COMMON OBJECTS ROUSE NO QUESTIONS,
 AND UNFAMILIAR POSSIBILITIES ARE CONTEMPTUOUSLY REJECTED.

                             -- BERTRAND RUSSELL
 Job cpu time:       1 days 17 hours 30 minutes 20.4 seconds.
 Elapsed time:       0 days  2 hours 35 minutes 55.6 seconds.
 File lengths (MBytes):  RWF=   1938 Int=      0 D2E=      0 Chk=     53 Scr=      1
 Normal termination of Gaussian 16 at Sun Jan 31 19:39:08 2021.
