 Entering Gaussian System, Link 0=g16
 Initial command:
 /apps/gaussian/16/A.03/g16/l1.exe "/beegfs/scratch/user/q/tla25/Gau-28267.inp" -scrdir="/beegfs/scratch/user/q/tla25/"
 Entering Link 1 = /apps/gaussian/16/A.03/g16/l1.exe PID=     28268.
  
 Copyright (c) 1988,1990,1992,1993,1995,1998,2003,2009,2016,
            Gaussian, Inc.  All Rights Reserved.
  
 This is part of the Gaussian(R) 16 program.  It is based on
 the Gaussian(R) 09 system (copyright 2009, Gaussian, Inc.),
 the Gaussian(R) 03 system (copyright 2003, Gaussian, Inc.),
 the Gaussian(R) 98 system (copyright 1998, Gaussian, Inc.),
 the Gaussian(R) 94 system (copyright 1995, Gaussian, Inc.),
 the Gaussian 92(TM) system (copyright 1992, Gaussian, Inc.),
 the Gaussian 90(TM) system (copyright 1990, Gaussian, Inc.),
 the Gaussian 88(TM) system (copyright 1988, Gaussian, Inc.),
 the Gaussian 86(TM) system (copyright 1986, Carnegie Mellon
 University), and the Gaussian 82(TM) system (copyright 1983,
 Carnegie Mellon University). Gaussian is a federally registered
 trademark of Gaussian, Inc.
  
 This software contains proprietary and confidential information,
 including trade secrets, belonging to Gaussian, Inc.
  
 This software is provided under written license and may be
 used, copied, transmitted, or stored only in accord with that
 written license.
  
 The following legend is applicable only to US Government
 contracts under FAR:
  
                    RESTRICTED RIGHTS LEGEND
  
 Use, reproduction and disclosure by the US Government is
 subject to restrictions as set forth in subparagraphs (a)
 and (c) of the Commercial Computer Software - Restricted
 Rights clause in FAR 52.227-19.
  
 Gaussian, Inc.
 340 Quinnipiac St., Bldg. 40, Wallingford CT 06492
  
  
 ---------------------------------------------------------------
 Warning -- This program may not be used in any manner that
 competes with the business of Gaussian, Inc. or will provide
 assistance to any competitor of Gaussian, Inc.  The licensee
 of this program is prohibited from giving any competitor of
 Gaussian, Inc. access to this program.  By using this program,
 the user acknowledges that Gaussian, Inc. is engaged in the
 business of creating and licensing software in the field of
 computational chemistry and represents and warrants to the
 licensee that it is not a competitor of Gaussian, Inc. and that
 it will not use this program in any manner prohibited above.
 ---------------------------------------------------------------
  

 Cite this work as:
 Gaussian 16, Revision A.03,
 M. J. Frisch, G. W. Trucks, H. B. Schlegel, G. E. Scuseria, 
 M. A. Robb, J. R. Cheeseman, G. Scalmani, V. Barone, 
 G. A. Petersson, H. Nakatsuji, X. Li, M. Caricato, A. V. Marenich, 
 J. Bloino, B. G. Janesko, R. Gomperts, B. Mennucci, H. P. Hratchian, 
 J. V. Ortiz, A. F. Izmaylov, J. L. Sonnenberg, D. Williams-Young, 
 F. Ding, F. Lipparini, F. Egidi, J. Goings, B. Peng, A. Petrone, 
 T. Henderson, D. Ranasinghe, V. G. Zakrzewski, J. Gao, N. Rega, 
 G. Zheng, W. Liang, M. Hada, M. Ehara, K. Toyota, R. Fukuda, 
 J. Hasegawa, M. Ishida, T. Nakajima, Y. Honda, O. Kitao, H. Nakai, 
 T. Vreven, K. Throssell, J. A. Montgomery, Jr., J. E. Peralta, 
 F. Ogliaro, M. J. Bearpark, J. J. Heyd, E. N. Brothers, K. N. Kudin, 
 V. N. Staroverov, T. A. Keith, R. Kobayashi, J. Normand, 
 K. Raghavachari, A. P. Rendell, J. C. Burant, S. S. Iyengar, 
 J. Tomasi, M. Cossi, J. M. Millam, M. Klene, C. Adamo, R. Cammi, 
 J. W. Ochterski, R. L. Martin, K. Morokuma, O. Farkas, 
 J. B. Foresman, and D. J. Fox, Gaussian, Inc., Wallingford CT, 2016.
 
 ******************************************
 Gaussian 16:  ES64L-G16RevA.03 25-Dec-2016
                13-Feb-2021 
 ******************************************
 %nprocshared=16
 Will use up to   16 processors via shared memory.
 %mem=48GB
 ----------------------------------------------------------------------
 # wB97XD def2tzvp, opt=(ts, noeigen, calcfc, maxcycles=70, maxstep=8),
  freq=noraman, scrf=(iefpcm, solvent=water)
 ----------------------------------------------------------------------
 1/5=1,6=70,8=8,10=4,11=1,18=20,26=3,38=1/1,3;
 2/9=110,12=2,17=6,18=5,40=1/2;
 3/5=44,7=101,11=2,25=1,30=1,70=2201,71=2,72=1,74=-58,140=1/1,2,3;
 4//1;
 5/5=2,38=5,53=1/2;
 8/6=4,10=90,11=11/1;
 11/6=1,8=1,9=11,15=111,16=1/1,2,10;
 10/6=1,13=1/2;
 6/7=2,8=2,9=2,10=2,28=1/1;
 7/10=1,18=20,25=1/1,2,3,16;
 1/5=1,6=70,8=8,10=4,11=1,18=20,26=3/3(2);
 2/9=110/2;
 99//99;
 2/9=110/2;
 3/5=44,7=101,11=2,25=1,30=1,70=2205,71=1,72=1,74=-58/1,2,3;
 4/5=5,16=3,69=1/1;
 5/5=2,38=5,53=1/2;
 7//1,2,3,16;
 1/5=1,6=70,8=8,11=1,18=20,26=3/3(-5);
 2/9=110/2;
 6/7=2,8=2,9=2,10=2,19=2,28=1/1;
 99/9=1/99;
 ------------------------
 1_iteration/TS-490-1.out
 ------------------------
 Symbolic Z-matrix:
 Charge =  0 Multiplicity = 1
 C                    -0.50909  -0.41824  -0.73854 
 C                    -1.63916  -0.08259   0.04007 
 O                    -1.62837   0.06177   1.28116 
 C                     0.75903  -0.71579  -0.20726 
 C                     1.29508   2.11296  -0.14559 
 H                     1.19574   3.05173   0.40133 
 H                     2.21965   2.13267  -0.71996 
 H                     0.45167   2.01557  -0.83358 
 N                     1.29205   0.95697   0.734 
 H                     2.14892   0.86842   1.26501 
 H                     0.50167   0.97393   1.37242 
 C                     1.88208  -0.86179  -1.2004 
 H                     1.79692  -1.83711  -1.68566 
 H                     1.83359  -0.09584  -1.97409 
 H                     2.85534  -0.81733  -0.71137 
 C                     0.89841  -1.61827   0.99497 
 H                     1.89     -1.54147   1.44347 
 H                     0.13687  -1.40938   1.74082 
 H                     0.77257  -2.6482    0.65094 
 H                    -0.57808  -0.2455   -1.80669 
 C                    -2.93336   0.18409  -0.71183 
 H                    -3.22586  -0.68764  -1.30044 
 H                    -3.72953   0.4287   -0.01064 
 H                    -2.80482   1.01632  -1.40734 
 
 Add virtual bond connecting atoms N9         and C4         Dist= 3.76D+00.

 GradGradGradGradGradGradGradGradGradGradGradGradGradGradGradGradGradGrad
 Berny optimization.
 Initialization pass.
                           ----------------------------
                           !    Initial Parameters    !
                           ! (Angstroms and Degrees)  !
 --------------------------                            --------------------------
 ! Name  Definition              Value          Derivative Info.                !
 --------------------------------------------------------------------------------
 ! R1    R(1,2)                  1.4128         calculate D2E/DX2 analytically  !
 ! R2    R(1,4)                  1.4067         calculate D2E/DX2 analytically  !
 ! R3    R(1,20)                 1.0842         calculate D2E/DX2 analytically  !
 ! R4    R(2,3)                  1.2495         calculate D2E/DX2 analytically  !
 ! R5    R(2,21)                 1.5203         calculate D2E/DX2 analytically  !
 ! R6    R(4,9)                  1.992          calculate D2E/DX2 analytically  !
 ! R7    R(4,12)                 1.5063         calculate D2E/DX2 analytically  !
 ! R8    R(4,16)                 1.5097         calculate D2E/DX2 analytically  !
 ! R9    R(5,6)                  1.091          calculate D2E/DX2 analytically  !
 ! R10   R(5,7)                  1.0886         calculate D2E/DX2 analytically  !
 ! R11   R(5,8)                  1.0928         calculate D2E/DX2 analytically  !
 ! R12   R(5,9)                  1.4526         calculate D2E/DX2 analytically  !
 ! R13   R(9,10)                 1.0119         calculate D2E/DX2 analytically  !
 ! R14   R(9,11)                 1.0162         calculate D2E/DX2 analytically  !
 ! R15   R(12,13)                1.0927         calculate D2E/DX2 analytically  !
 ! R16   R(12,14)                1.0898         calculate D2E/DX2 analytically  !
 ! R17   R(12,15)                1.0901         calculate D2E/DX2 analytically  !
 ! R18   R(16,17)                1.091          calculate D2E/DX2 analytically  !
 ! R19   R(16,18)                1.0862         calculate D2E/DX2 analytically  !
 ! R20   R(16,19)                1.0931         calculate D2E/DX2 analytically  !
 ! R21   R(21,22)                1.0918         calculate D2E/DX2 analytically  !
 ! R22   R(21,23)                1.0888         calculate D2E/DX2 analytically  !
 ! R23   R(21,24)                1.0922         calculate D2E/DX2 analytically  !
 ! A1    A(2,1,4)              124.2761         calculate D2E/DX2 analytically  !
 ! A2    A(2,1,20)             117.0134         calculate D2E/DX2 analytically  !
 ! A3    A(4,1,20)             117.5891         calculate D2E/DX2 analytically  !
 ! A4    A(1,2,3)              124.6073         calculate D2E/DX2 analytically  !
 ! A5    A(1,2,21)             116.7453         calculate D2E/DX2 analytically  !
 ! A6    A(3,2,21)             118.5755         calculate D2E/DX2 analytically  !
 ! A7    A(1,4,9)              104.0072         calculate D2E/DX2 analytically  !
 ! A8    A(1,4,12)             116.3339         calculate D2E/DX2 analytically  !
 ! A9    A(1,4,16)             120.6912         calculate D2E/DX2 analytically  !
 ! A10   A(9,4,12)             101.1534         calculate D2E/DX2 analytically  !
 ! A11   A(9,4,16)              95.7964         calculate D2E/DX2 analytically  !
 ! A12   A(12,4,16)            113.47           calculate D2E/DX2 analytically  !
 ! A13   A(6,5,7)              109.0409         calculate D2E/DX2 analytically  !
 ! A14   A(6,5,8)              108.7852         calculate D2E/DX2 analytically  !
 ! A15   A(6,5,9)              112.3974         calculate D2E/DX2 analytically  !
 ! A16   A(7,5,8)              108.9616         calculate D2E/DX2 analytically  !
 ! A17   A(7,5,9)              109.613          calculate D2E/DX2 analytically  !
 ! A18   A(8,5,9)              107.9808         calculate D2E/DX2 analytically  !
 ! A19   A(4,9,5)              112.5011         calculate D2E/DX2 analytically  !
 ! A20   A(4,9,10)             113.643          calculate D2E/DX2 analytically  !
 ! A21   A(4,9,11)              95.8979         calculate D2E/DX2 analytically  !
 ! A22   A(5,9,10)             112.6822         calculate D2E/DX2 analytically  !
 ! A23   A(5,9,11)             111.6404         calculate D2E/DX2 analytically  !
 ! A24   A(10,9,11)            109.293          calculate D2E/DX2 analytically  !
 ! A25   A(4,12,13)            108.7364         calculate D2E/DX2 analytically  !
 ! A26   A(4,12,14)            111.5179         calculate D2E/DX2 analytically  !
 ! A27   A(4,12,15)            111.4643         calculate D2E/DX2 analytically  !
 ! A28   A(13,12,14)           107.9747         calculate D2E/DX2 analytically  !
 ! A29   A(13,12,15)           107.7706         calculate D2E/DX2 analytically  !
 ! A30   A(14,12,15)           109.2411         calculate D2E/DX2 analytically  !
 ! A31   A(4,16,17)            111.6656         calculate D2E/DX2 analytically  !
 ! A32   A(4,16,18)            111.5376         calculate D2E/DX2 analytically  !
 ! A33   A(4,16,19)            107.5759         calculate D2E/DX2 analytically  !
 ! A34   A(17,16,18)           109.9619         calculate D2E/DX2 analytically  !
 ! A35   A(17,16,19)           107.4773         calculate D2E/DX2 analytically  !
 ! A36   A(18,16,19)           108.4563         calculate D2E/DX2 analytically  !
 ! A37   A(2,21,22)            110.7718         calculate D2E/DX2 analytically  !
 ! A38   A(2,21,23)            110.0838         calculate D2E/DX2 analytically  !
 ! A39   A(2,21,24)            110.3903         calculate D2E/DX2 analytically  !
 ! A40   A(22,21,23)           109.3109         calculate D2E/DX2 analytically  !
 ! A41   A(22,21,24)           107.2549         calculate D2E/DX2 analytically  !
 ! A42   A(23,21,24)           108.965          calculate D2E/DX2 analytically  !
 ! D1    D(4,1,2,3)              4.1657         calculate D2E/DX2 analytically  !
 ! D2    D(4,1,2,21)          -178.9725         calculate D2E/DX2 analytically  !
 ! D3    D(20,1,2,3)          -163.4037         calculate D2E/DX2 analytically  !
 ! D4    D(20,1,2,21)           13.4581         calculate D2E/DX2 analytically  !
 ! D5    D(2,1,4,9)            -61.5302         calculate D2E/DX2 analytically  !
 ! D6    D(2,1,4,12)          -171.7685         calculate D2E/DX2 analytically  !
 ! D7    D(2,1,4,16)            44.0811         calculate D2E/DX2 analytically  !
 ! D8    D(20,1,4,9)           105.9735         calculate D2E/DX2 analytically  !
 ! D9    D(20,1,4,12)           -4.2647         calculate D2E/DX2 analytically  !
 ! D10   D(20,1,4,16)         -148.4151         calculate D2E/DX2 analytically  !
 ! D11   D(1,2,21,22)           58.8329         calculate D2E/DX2 analytically  !
 ! D12   D(1,2,21,23)          179.8482         calculate D2E/DX2 analytically  !
 ! D13   D(1,2,21,24)          -59.8159         calculate D2E/DX2 analytically  !
 ! D14   D(3,2,21,22)         -124.1081         calculate D2E/DX2 analytically  !
 ! D15   D(3,2,21,23)           -3.0929         calculate D2E/DX2 analytically  !
 ! D16   D(3,2,21,24)          117.2431         calculate D2E/DX2 analytically  !
 ! D17   D(1,4,9,5)            -57.0339         calculate D2E/DX2 analytically  !
 ! D18   D(1,4,9,10)           173.3986         calculate D2E/DX2 analytically  !
 ! D19   D(1,4,9,11)            59.3308         calculate D2E/DX2 analytically  !
 ! D20   D(12,4,9,5)            63.9757         calculate D2E/DX2 analytically  !
 ! D21   D(12,4,9,10)          -65.5918         calculate D2E/DX2 analytically  !
 ! D22   D(12,4,9,11)         -179.6596         calculate D2E/DX2 analytically  !
 ! D23   D(16,4,9,5)           179.3187         calculate D2E/DX2 analytically  !
 ! D24   D(16,4,9,10)           49.7512         calculate D2E/DX2 analytically  !
 ! D25   D(16,4,9,11)          -64.3166         calculate D2E/DX2 analytically  !
 ! D26   D(1,4,12,13)          -76.9482         calculate D2E/DX2 analytically  !
 ! D27   D(1,4,12,14)           41.9996         calculate D2E/DX2 analytically  !
 ! D28   D(1,4,12,15)          164.388          calculate D2E/DX2 analytically  !
 ! D29   D(9,4,12,13)          171.1599         calculate D2E/DX2 analytically  !
 ! D30   D(9,4,12,14)          -69.8924         calculate D2E/DX2 analytically  !
 ! D31   D(9,4,12,15)           52.496          calculate D2E/DX2 analytically  !
 ! D32   D(16,4,12,13)          69.75           calculate D2E/DX2 analytically  !
 ! D33   D(16,4,12,14)        -171.3023         calculate D2E/DX2 analytically  !
 ! D34   D(16,4,12,15)         -48.9139         calculate D2E/DX2 analytically  !
 ! D35   D(1,4,16,17)         -164.8047         calculate D2E/DX2 analytically  !
 ! D36   D(1,4,16,18)          -41.3206         calculate D2E/DX2 analytically  !
 ! D37   D(1,4,16,19)           77.4971         calculate D2E/DX2 analytically  !
 ! D38   D(9,4,16,17)          -54.7346         calculate D2E/DX2 analytically  !
 ! D39   D(9,4,16,18)           68.7494         calculate D2E/DX2 analytically  !
 ! D40   D(9,4,16,19)         -172.4328         calculate D2E/DX2 analytically  !
 ! D41   D(12,4,16,17)          50.1007         calculate D2E/DX2 analytically  !
 ! D42   D(12,4,16,18)         173.5848         calculate D2E/DX2 analytically  !
 ! D43   D(12,4,16,19)         -67.5975         calculate D2E/DX2 analytically  !
 ! D44   D(6,5,9,4)            157.5149         calculate D2E/DX2 analytically  !
 ! D45   D(6,5,9,10)           -72.4245         calculate D2E/DX2 analytically  !
 ! D46   D(6,5,9,11)            51.0156         calculate D2E/DX2 analytically  !
 ! D47   D(7,5,9,4)            -81.0556         calculate D2E/DX2 analytically  !
 ! D48   D(7,5,9,10)            49.005          calculate D2E/DX2 analytically  !
 ! D49   D(7,5,9,11)           172.4451         calculate D2E/DX2 analytically  !
 ! D50   D(8,5,9,4)             37.5194         calculate D2E/DX2 analytically  !
 ! D51   D(8,5,9,10)           167.58           calculate D2E/DX2 analytically  !
 ! D52   D(8,5,9,11)           -68.9799         calculate D2E/DX2 analytically  !
 --------------------------------------------------------------------------------
 Trust Radius=8.00D-02 FncErr=1.00D-07 GrdErr=1.00D-06 EigMax=2.50D+02 EigMin=1.00D-04
 Number of steps in this run=     70 maximum allowed number of steps=    144.
 Search for a saddle point of order  1.
 GradGradGradGradGradGradGradGradGradGradGradGradGradGradGradGradGradGrad

                          Input orientation:                          
 ---------------------------------------------------------------------
 Center     Atomic      Atomic             Coordinates (Angstroms)
 Number     Number       Type             X           Y           Z
 ---------------------------------------------------------------------
      1          6           0       -0.509090   -0.418240   -0.738540
      2          6           0       -1.639160   -0.082590    0.040070
      3          8           0       -1.628370    0.061770    1.281160
      4          6           0        0.759030   -0.715790   -0.207260
      5          6           0        1.295080    2.112960   -0.145590
      6          1           0        1.195740    3.051730    0.401330
      7          1           0        2.219650    2.132670   -0.719960
      8          1           0        0.451670    2.015570   -0.833580
      9          7           0        1.292050    0.956970    0.734000
     10          1           0        2.148920    0.868420    1.265010
     11          1           0        0.501670    0.973930    1.372420
     12          6           0        1.882080   -0.861790   -1.200400
     13          1           0        1.796920   -1.837110   -1.685660
     14          1           0        1.833590   -0.095840   -1.974090
     15          1           0        2.855340   -0.817330   -0.711370
     16          6           0        0.898410   -1.618270    0.994970
     17          1           0        1.890000   -1.541470    1.443470
     18          1           0        0.136870   -1.409380    1.740820
     19          1           0        0.772570   -2.648200    0.650940
     20          1           0       -0.578080   -0.245500   -1.806690
     21          6           0       -2.933360    0.184090   -0.711830
     22          1           0       -3.225860   -0.687640   -1.300440
     23          1           0       -3.729530    0.428700   -0.010640
     24          1           0       -2.804820    1.016320   -1.407340
 ---------------------------------------------------------------------
                    Distance matrix (angstroms):
                    1          2          3          4          5
     1  C    0.000000
     2  C    1.412782   0.000000
     3  O    2.358471   1.249504   0.000000
     4  C    1.406742   2.492675   2.918848   0.000000
     5  C    3.164426   3.669424   3.845719   2.879753   0.000000
     6  H    4.030687   4.241595   4.205896   3.841263   1.090999
     7  H    3.735440   4.513916   4.806284   3.241912   1.088632
     8  H    2.618305   3.088221   3.551905   2.819056   1.092774
     9  N    2.702532   3.186568   3.103163   1.992036   1.452584
    10  H    3.568574   4.093220   3.862495   2.570816   2.065845
    11  H    2.723220   2.733961   2.318930   2.327397   2.056999
    12  C    2.475428   3.813797   4.397086   1.506282   3.210347
    13  H    2.868433   4.226480   4.913286   2.126086   4.269275
    14  H    2.668085   4.014599   4.754646   2.158867   2.917568
    15  H    3.388126   4.615738   4.984641   2.158461   3.367658
    16  C    2.534992   3.115992   3.047795   1.509720   3.921773
    17  H    3.431974   4.068517   3.869839   2.164659   4.029131
    18  H    2.747153   2.794138   2.343425   2.159436   4.160153
    19  H    2.923359   3.573788   3.675000   2.114450   4.855525
    20  H    1.084225   2.136107   3.276025   2.137104   3.439523
    21  C    2.498119   1.520337   2.385366   3.833813   4.681973
    22  H    2.787319   2.163485   3.127019   4.132213   5.442053
    23  H    3.408574   2.152588   2.493644   4.636344   5.301099
    24  H    2.788482   2.159019   3.085974   4.140220   4.427619
                    6          7          8          9         10
     6  H    0.000000
     7  H    1.774924   0.000000
     8  H    1.775463   1.775493   0.000000
     9  N    2.123197   2.087274   2.069826   0.000000
    10  H    2.534036   2.354450   2.932693   1.011948   0.000000
    11  H    2.396247   2.944858   2.440072   1.016154   1.654117
    12  C    4.283951   3.051486   3.234166   2.719913   3.023752
    13  H    5.349551   4.107363   4.168799   3.730487   4.018737
    14  H    3.994580   2.586144   2.769209   2.955575   3.394260
    15  H    4.354538   3.017727   3.717242   2.771482   2.691999
    16  C    4.716960   4.330844   4.092428   2.618190   2.796484
    17  H    4.760834   4.276494   4.461646   2.665163   2.430320
    18  H    4.776708   4.789523   4.296151   2.819174   3.076217
    19  H    5.721065   5.179780   4.904847   3.643351   3.825969
    20  H    4.346667   3.829356   2.668289   3.376156   4.255900
    21  C    5.148976   5.509133   3.850658   4.532313   5.495978
    22  H    6.035682   6.159926   4.587977   5.220651   6.155576
    23  H    5.595381   6.228916   4.547287   5.103903   6.031319
    24  H    4.839283   5.192690   3.454335   4.623116   5.630530
                   11         12         13         14         15
    11  H    0.000000
    12  C    3.448884   0.000000
    13  H    4.351031   1.092693   0.000000
    14  H    3.757333   1.089783   1.765378   0.000000
    15  H    3.618087   1.090120   1.763362   1.777353   0.000000
    16  C    2.649410   2.521808   2.835664   3.465209   2.717108
    17  H    2.873977   2.729849   3.144443   3.711165   2.469736
    18  H    2.439050   3.463580   3.831381   4.290082   3.708617
    19  H    3.703208   2.801737   2.677099   3.811966   3.089645
    20  H    3.572060   2.607640   2.861555   2.422101   3.648985
    21  C    4.094799   4.951871   5.235374   4.939177   5.874682
    22  H    4.878471   5.111887   5.167010   5.138294   6.111041
    23  H    4.484772   5.879716   6.203325   5.922717   6.738258
    24  H    4.319923   5.053430   5.421765   4.803431   5.990330
                   16         17         18         19         20
    16  C    0.000000
    17  H    1.091009   0.000000
    18  H    1.086218   1.783067   0.000000
    19  H    1.093137   1.761137   1.768227   0.000000
    20  H    3.451640   4.281880   3.801394   3.692854   0.000000
    21  C    4.565537   5.557668   4.240395   4.859313   2.632605
    22  H    4.810882   5.867716   4.591092   4.862008   2.731761
    23  H    5.159377   6.129855   4.625494   5.493078   3.689441
    24  H    5.140629   6.058939   4.944540   5.519324   2.590375
                   21         22         23         24
    21  C    0.000000
    22  H    1.091756   0.000000
    23  H    1.088755   1.778618   0.000000
    24  H    1.092183   1.758460   1.775150   0.000000
 Stoichiometry    C7H15NO
 Framework group  C1[X(C7H15NO)]
 Deg. of freedom    66
 Full point group                 C1      NOp   1
 Largest Abelian subgroup         C1      NOp   1
 Largest concise Abelian subgroup C1      NOp   1
                         Standard orientation:                         
 ---------------------------------------------------------------------
 Center     Atomic      Atomic             Coordinates (Angstroms)
 Number     Number       Type             X           Y           Z
 ---------------------------------------------------------------------
      1          6           0        0.509090   -0.418240    0.738540
      2          6           0        1.639160   -0.082590   -0.040070
      3          8           0        1.628370    0.061770   -1.281160
      4          6           0       -0.759030   -0.715791    0.207260
      5          6           0       -1.295081    2.112959    0.145590
      6          1           0       -1.195742    3.051729   -0.401330
      7          1           0       -2.219651    2.132668    0.719960
      8          1           0       -0.451671    2.015569    0.833580
      9          7           0       -1.292051    0.956969   -0.734000
     10          1           0       -2.148921    0.868418   -1.265010
     11          1           0       -0.501671    0.973929   -1.372420
     12          6           0       -1.882080   -0.861792    1.200400
     13          1           0       -1.796919   -1.837112    1.685660
     14          1           0       -1.833590   -0.095842    1.974090
     15          1           0       -2.855340   -0.817332    0.711370
     16          6           0       -0.898409   -1.618271   -0.994970
     17          1           0       -1.889999   -1.541472   -1.443470
     18          1           0       -0.136870   -1.409381   -1.740820
     19          1           0       -0.772569   -2.648201   -0.650940
     20          1           0        0.578080   -0.245500    1.806690
     21          6           0        2.933360    0.184091    0.711830
     22          1           0        3.225860   -0.687639    1.300440
     23          1           0        3.729529    0.428701    0.010640
     24          1           0        2.804819    1.016321    1.407340
 ---------------------------------------------------------------------
 Rotational constants (GHZ):           1.9933840           1.1287335           1.0115328
 Standard basis: def2TZVP (5D, 7F)
 There are   414 symmetry adapted cartesian basis functions of A   symmetry.
 There are   369 symmetry adapted basis functions of A   symmetry.
   369 basis functions,   579 primitive gaussians,   414 cartesian basis functions
    36 alpha electrons       36 beta electrons
       nuclear repulsion energy       488.1455701792 Hartrees.
 NAtoms=   24 NActive=   24 NUniq=   24 SFac= 1.00D+00 NAtFMM=   60 NAOKFM=F Big=F
 Integral buffers will be    131072 words long.
 Raffenetti 2 integral format.
 Two-electron integral symmetry is turned on.
 Nuclear repulsion after empirical dispersion term =      488.1286516622 Hartrees.
 Force inversion solution in PCM.
 ------------------------------------------------------------------------------
 Polarizable Continuum Model (PCM)
 =================================
 Model                : PCM.
 Atomic radii         : UFF (Universal Force Field).
 Polarization charges : Total charges.
 Charge compensation  : None.
 Solution method      : Matrix inversion.
 Cavity type          : Scaled VdW (van der Waals Surface) (Alpha=1.100).
 Cavity algorithm     : GePol (No added spheres)
                        Default sphere list used, NSphG=   24.
                        Lebedev-Laikov grids with approx.  5.0 points / Ang**2.
                        Smoothing algorithm: York/Karplus (Gamma=1.0000).
                        Polarization charges: spherical gaussians, with
                                              point-specific exponents (IZeta= 3).
                        Self-potential: point-specific (ISelfS= 7).
                        Self-field    : sphere-specific E.n sum rule (ISelfD= 2).
 1st derivatives      : Analytical E(r).r(x)/FMM algorithm (CHGder, D1EAlg=3).
                        Cavity 1st derivative terms included.
 2nd derivatives      : Analytical E(r).r(xy)/FMM algorithm (CHGder, D2EAlg=3).
                        Cavity 2nd derivative terms included.
 Solvent              : Water, Eps=  78.355300 Eps(inf)=   1.777849
 ------------------------------------------------------------------------------
 One-electron integrals computed using PRISM.
   1 Symmetry operations used in ECPInt.
 ECPInt:  NShTT=   12720 NPrTT=   36828 LenC2=   12421 LenP2D=   28468.
 LDataN:  DoStor=T MaxTD1= 6 Len=  172
 NBasis=   369 RedAO= T EigKep=  7.39D-05  NBF=   369
 NBsUse=   369 1.00D-06 EigRej= -1.00D+00 NBFU=   369
 ExpMin= 9.52D-02 ExpMax= 2.70D+04 ExpMxC= 9.22D+02 IAcc=3 IRadAn=         5 AccDes= 0.00D+00
 Harris functional with IExCor= 4639 and IRadAn=       5 diagonalized for initial guess.
 HarFok:  IExCor= 4639 AccDes= 0.00D+00 IRadAn=         5 IDoV= 1 UseB2=F ITyADJ=14
 ICtDFT=  3500011 ScaDFX=  1.000000  1.000000  1.000000  1.000000
 FoFCou: FMM=F IPFlag=           0 FMFlag=      100000 FMFlg1=           0
         NFxFlg=           0 DoJE=T BraDBF=F KetDBF=T FulRan=T
         wScrn=  0.000000 ICntrl=       500 IOpCl=  0 I1Cent=   200000004 NGrid=           0
         NMat0=    1 NMatS0=      1 NMatT0=    0 NMatD0=    1 NMtDS0=    0 NMtDT0=    0
 Petite list used in FoFCou.
 Requested convergence on RMS density matrix=1.00D-08 within 128 cycles.
 Requested convergence on MAX density matrix=1.00D-06.
 Requested convergence on             energy=1.00D-06.
 No special actions if energy rises.
 Inv3:  Mode=1 IEnd=     8256843.
 Iteration    1 A*A^-1 deviation from unit magnitude is 1.15D-14 for   1647.
 Iteration    1 A*A^-1 deviation from orthogonality  is 7.37D-15 for   1647    151.
 Iteration    1 A^-1*A deviation from unit magnitude is 1.15D-14 for   1647.
 Iteration    1 A^-1*A deviation from orthogonality  is 3.05D-15 for   1296   1271.
 Error on total polarization charges =  0.01301
 SCF Done:  E(RwB97XD) =  -405.748217467     A.U. after   14 cycles
            NFock= 14  Conv=0.70D-08     -V/T= 2.0051
 DoSCS=F DFT=T ScalE2(SS,OS)=  1.000000  1.000000
 Range of M.O.s used for correlation:     1   369
 NBasis=   369 NAE=    36 NBE=    36 NFC=     0 NFV=     0
 NROrb=    369 NOA=    36 NOB=    36 NVA=   333 NVB=   333

 **** Warning!!: The largest alpha MO coefficient is  0.20493056D+02

   1 Symmetry operations used in ECPInt.
 ECPInt:  NShTT=   12720 NPrTT=   36828 LenC2=   12421 LenP2D=   28468.
 LDataN:  DoStor=T MaxTD1= 7 Len=  274
 Symmetrizing basis deriv contribution to polar:
 IMax=3 JMax=2 DiffMx= 0.00D+00
 G2DrvN: will do    25 centers at a time, making    1 passes.
 Calling FoFCou, ICntrl=  3107 FMM=F I1Cent=   0 AccDes= 0.00D+00.
 NEqPCM:  Using equilibrium solvation (IEInf=0, Eps=  78.3553, EpsInf=   1.7778)
 G2PCM: DoFxE=T DoFxN=T DoGrad=T DoDP/DQ/DG/TGxP=FFFF NFrqRd=   0 IEInf=0 SqF1=F DoCFld=F IF1Alg=4.
 End of G2Drv F.D. properties file   721 does not exist.
 End of G2Drv F.D. properties file   722 does not exist.
 End of G2Drv F.D. properties file   788 does not exist.
          IDoAtm=111111111111111111111111
 NEqPCM:  Using equilibrium solvation (IEInf=0, Eps=  78.3553, EpsInf=   1.7778)
          Differentiating once with respect to nuclear coordinates.
 Keep R1 ints in memory in canonical form, NReq=4695927486.
          There are    75 degrees of freedom in the 1st order CPHF.  IDoFFX=6 NUNeed=     0.
     69 vectors produced by pass  0 Test12= 1.60D-14 1.33D-09 XBig12= 1.13D-01 1.94D-01.
 AX will form    69 AO Fock derivatives at one time.
     69 vectors produced by pass  1 Test12= 1.60D-14 1.33D-09 XBig12= 1.31D-02 2.09D-02.
     69 vectors produced by pass  2 Test12= 1.60D-14 1.33D-09 XBig12= 3.85D-04 2.77D-03.
     69 vectors produced by pass  3 Test12= 1.60D-14 1.33D-09 XBig12= 4.90D-06 3.35D-04.
     69 vectors produced by pass  4 Test12= 1.60D-14 1.33D-09 XBig12= 4.70D-08 2.66D-05.
     69 vectors produced by pass  5 Test12= 1.60D-14 1.33D-09 XBig12= 3.67D-10 1.78D-06.
     66 vectors produced by pass  6 Test12= 1.60D-14 1.33D-09 XBig12= 2.34D-12 1.71D-07.
     15 vectors produced by pass  7 Test12= 1.60D-14 1.33D-09 XBig12= 1.30D-14 1.35D-08.
 InvSVY:  IOpt=1 It=  1 EMax= 5.00D-16
 Solved reduced A of dimension   495 with    75 vectors.
 End of Minotr F.D. properties file   721 does not exist.
 End of Minotr F.D. properties file   722 does not exist.
 End of Minotr F.D. properties file   788 does not exist.

 **********************************************************************

            Population analysis using the SCF density.

 **********************************************************************

 Orbital symmetries:
       Occupied  (A) (A) (A) (A) (A) (A) (A) (A) (A) (A) (A) (A)
                 (A) (A) (A) (A) (A) (A) (A) (A) (A) (A) (A) (A)
                 (A) (A) (A) (A) (A) (A) (A) (A) (A) (A) (A) (A)
       Virtual   (A) (A) (A) (A) (A) (A) (A) (A) (A) (A) (A) (A)
                 (A) (A) (A) (A) (A) (A) (A) (A) (A) (A) (A) (A)
                 (A) (A) (A) (A) (A) (A) (A) (A) (A) (A) (A) (A)
                 (A) (A) (A) (A) (A) (A) (A) (A) (A) (A) (A) (A)
                 (A) (A) (A) (A) (A) (A) (A) (A) (A) (A) (A) (A)
                 (A) (A) (A) (A) (A) (A) (A) (A) (A) (A) (A) (A)
                 (A) (A) (A) (A) (A) (A) (A) (A) (A) (A) (A) (A)
                 (A) (A) (A) (A) (A) (A) (A) (A) (A) (A) (A) (A)
                 (A) (A) (A) (A) (A) (A) (A) (A) (A) (A) (A) (A)
                 (A) (A) (A) (A) (A) (A) (A) (A) (A) (A) (A) (A)
                 (A) (A) (A) (A) (A) (A) (A) (A) (A) (A) (A) (A)
                 (A) (A) (A) (A) (A) (A) (A) (A) (A) (A) (A) (A)
                 (A) (A) (A) (A) (A) (A) (A) (A) (A) (A) (A) (A)
                 (A) (A) (A) (A) (A) (A) (A) (A) (A) (A) (A) (A)
                 (A) (A) (A) (A) (A) (A) (A) (A) (A) (A) (A) (A)
                 (A) (A) (A) (A) (A) (A) (A) (A) (A) (A) (A) (A)
                 (A) (A) (A) (A) (A) (A) (A) (A) (A) (A) (A) (A)
                 (A) (A) (A) (A) (A) (A) (A) (A) (A) (A) (A) (A)
                 (A) (A) (A) (A) (A) (A) (A) (A) (A) (A) (A) (A)
                 (A) (A) (A) (A) (A) (A) (A) (A) (A) (A) (A) (A)
                 (A) (A) (A) (A) (A) (A) (A) (A) (A) (A) (A) (A)
                 (A) (A) (A) (A) (A) (A) (A) (A) (A) (A) (A) (A)
                 (A) (A) (A) (A) (A) (A) (A) (A) (A) (A) (A) (A)
                 (A) (A) (A) (A) (A) (A) (A) (A) (A) (A) (A) (A)
                 (A) (A) (A) (A) (A) (A) (A) (A) (A) (A) (A) (A)
                 (A) (A) (A) (A) (A) (A) (A) (A) (A) (A) (A) (A)
                 (A) (A) (A) (A) (A) (A) (A) (A) (A) (A) (A) (A)
                 (A) (A) (A) (A) (A) (A) (A) (A) (A)
 The electronic state is 1-A.
 Alpha  occ. eigenvalues --  -19.19480 -14.46338 -10.34134 -10.33922 -10.30817
 Alpha  occ. eigenvalues --  -10.27635 -10.27041 -10.26490 -10.23486  -1.09669
 Alpha  occ. eigenvalues --   -1.02149  -0.91145  -0.83658  -0.79673  -0.77839
 Alpha  occ. eigenvalues --   -0.77170  -0.65989  -0.61788  -0.58550  -0.56195
 Alpha  occ. eigenvalues --   -0.55216  -0.54334  -0.52990  -0.50631  -0.49327
 Alpha  occ. eigenvalues --   -0.48728  -0.48030  -0.47113  -0.46911  -0.44877
 Alpha  occ. eigenvalues --   -0.43545  -0.42983  -0.41999  -0.38439  -0.31120
 Alpha  occ. eigenvalues --   -0.27104
 Alpha virt. eigenvalues --    0.05209   0.10196   0.12660   0.13247   0.14577
 Alpha virt. eigenvalues --    0.15686   0.16466   0.17678   0.18540   0.18764
 Alpha virt. eigenvalues --    0.19571   0.20183   0.21025   0.21396   0.22723
 Alpha virt. eigenvalues --    0.23010   0.23493   0.23822   0.24774   0.25199
 Alpha virt. eigenvalues --    0.25550   0.27513   0.28562   0.30147   0.30913
 Alpha virt. eigenvalues --    0.32625   0.33451   0.34316   0.35185   0.36792
 Alpha virt. eigenvalues --    0.38133   0.39901   0.40311   0.41334   0.43348
 Alpha virt. eigenvalues --    0.43881   0.45047   0.45866   0.46990   0.47540
 Alpha virt. eigenvalues --    0.48615   0.48684   0.49324   0.50442   0.50799
 Alpha virt. eigenvalues --    0.51088   0.52629   0.53188   0.53684   0.53877
 Alpha virt. eigenvalues --    0.54421   0.54887   0.55913   0.56966   0.57364
 Alpha virt. eigenvalues --    0.58668   0.59044   0.60102   0.60403   0.61336
 Alpha virt. eigenvalues --    0.62468   0.64103   0.65567   0.66671   0.67535
 Alpha virt. eigenvalues --    0.68974   0.69915   0.71378   0.73325   0.74544
 Alpha virt. eigenvalues --    0.76329   0.80016   0.82225   0.83027   0.85041
 Alpha virt. eigenvalues --    0.86795   0.88586   0.90183   0.91680   0.93786
 Alpha virt. eigenvalues --    0.95106   0.96584   0.98002   0.98641   1.01361
 Alpha virt. eigenvalues --    1.03371   1.04448   1.07137   1.07783   1.08817
 Alpha virt. eigenvalues --    1.10252   1.10686   1.12731   1.14067   1.15745
 Alpha virt. eigenvalues --    1.17437   1.18351   1.21308   1.23023   1.25271
 Alpha virt. eigenvalues --    1.28351   1.30269   1.31495   1.34967   1.35927
 Alpha virt. eigenvalues --    1.37111   1.41116   1.41886   1.42495   1.46773
 Alpha virt. eigenvalues --    1.47384   1.50429   1.51318   1.55048   1.56487
 Alpha virt. eigenvalues --    1.58501   1.59338   1.60557   1.61158   1.62324
 Alpha virt. eigenvalues --    1.63179   1.64510   1.65682   1.65938   1.66271
 Alpha virt. eigenvalues --    1.67423   1.68056   1.68470   1.70178   1.71441
 Alpha virt. eigenvalues --    1.71912   1.72725   1.74121   1.75446   1.79205
 Alpha virt. eigenvalues --    1.80853   1.83102   1.84155   1.87632   1.89345
 Alpha virt. eigenvalues --    1.91677   1.94790   1.95097   1.98350   1.98422
 Alpha virt. eigenvalues --    2.00813   2.03411   2.04240   2.05303   2.06906
 Alpha virt. eigenvalues --    2.07384   2.09028   2.11660   2.13278   2.14745
 Alpha virt. eigenvalues --    2.15433   2.17509   2.18325   2.20250   2.21005
 Alpha virt. eigenvalues --    2.22285   2.24556   2.27968   2.30186   2.32253
 Alpha virt. eigenvalues --    2.32742   2.33883   2.35898   2.37558   2.40038
 Alpha virt. eigenvalues --    2.43150   2.43589   2.43889   2.46268   2.47272
 Alpha virt. eigenvalues --    2.48267   2.49436   2.51122   2.51992   2.53644
 Alpha virt. eigenvalues --    2.54169   2.57916   2.59566   2.62036   2.63354
 Alpha virt. eigenvalues --    2.64676   2.65150   2.65846   2.67253   2.68178
 Alpha virt. eigenvalues --    2.68783   2.70166   2.70990   2.73601   2.75322
 Alpha virt. eigenvalues --    2.77565   2.79166   2.81058   2.82186   2.82698
 Alpha virt. eigenvalues --    2.84720   2.85532   2.87532   2.88088   2.92658
 Alpha virt. eigenvalues --    2.93022   2.96539   2.98457   2.99419   3.01898
 Alpha virt. eigenvalues --    3.03455   3.05758   3.07555   3.08271   3.10153
 Alpha virt. eigenvalues --    3.11275   3.14384   3.14679   3.15813   3.17290
 Alpha virt. eigenvalues --    3.20110   3.20637   3.23185   3.23750   3.25778
 Alpha virt. eigenvalues --    3.26787   3.27398   3.28812   3.29601   3.30027
 Alpha virt. eigenvalues --    3.32533   3.33937   3.37167   3.38598   3.39553
 Alpha virt. eigenvalues --    3.39746   3.41014   3.41245   3.43516   3.44671
 Alpha virt. eigenvalues --    3.45330   3.46426   3.49779   3.50622   3.51894
 Alpha virt. eigenvalues --    3.53425   3.54430   3.56317   3.59066   3.63043
 Alpha virt. eigenvalues --    3.63456   3.66295   3.67494   3.70091   3.70973
 Alpha virt. eigenvalues --    3.71968   3.74718   3.76180   3.78389   3.84343
 Alpha virt. eigenvalues --    3.86673   3.88665   3.91100   3.93609   3.94496
 Alpha virt. eigenvalues --    3.95461   3.99046   4.00443   4.06253   4.07075
 Alpha virt. eigenvalues --    4.11345   4.12495   4.15195   4.16225   4.21320
 Alpha virt. eigenvalues --    4.23198   4.24474   4.30059   4.30669   4.34680
 Alpha virt. eigenvalues --    4.36615   4.42263   4.43648   4.47256   4.48091
 Alpha virt. eigenvalues --    4.49106   4.51470   4.56252   4.59841   4.60388
 Alpha virt. eigenvalues --    4.64389   4.67862   4.69525   4.72482   4.76183
 Alpha virt. eigenvalues --    4.83736   4.94830   4.97612   5.00048   5.02739
 Alpha virt. eigenvalues --    5.05763   5.09928   5.11985   5.13371   5.20139
 Alpha virt. eigenvalues --    5.25213   5.26849   5.29015   5.32806   5.34717
 Alpha virt. eigenvalues --    5.42664   5.47372   5.58249   5.68304   5.77224
 Alpha virt. eigenvalues --    5.91488   6.19057   6.38823   6.54671   6.63560
 Alpha virt. eigenvalues --    6.70108   6.94852   7.16714   7.21148  22.48042
 Alpha virt. eigenvalues --   22.50779  22.55796  22.57803  22.76969  22.90903
 Alpha virt. eigenvalues --   23.24887  32.18289  44.08906
          Condensed to atoms (all electrons):
               1          2          3          4          5          6
     1  C    6.322609   0.171925  -0.244633   0.223836  -0.027704  -0.000403
     2  C    0.171925   4.688545   0.601980  -0.031105   0.001742  -0.000496
     3  O   -0.244633   0.601980   8.224871   0.053326   0.002849   0.000044
     4  C    0.223836  -0.031105   0.053326   5.227265  -0.014437   0.001186
     5  C   -0.027704   0.001742   0.002849  -0.014437   4.870122   0.414521
     6  H   -0.000403  -0.000496   0.000044   0.001186   0.414521   0.517595
     7  H   -0.000541   0.000128  -0.000074  -0.002457   0.416850  -0.019996
     8  H    0.017011   0.000445  -0.001462   0.009181   0.413704  -0.025784
     9  N   -0.025577   0.001235  -0.014568  -0.012420   0.245485  -0.024141
    10  H    0.005642  -0.000384   0.000188   0.003305  -0.022634  -0.002745
    11  H   -0.036105   0.005772   0.029797  -0.004609  -0.019948  -0.006571
    12  C   -0.078818   0.004330   0.000438   0.279807   0.001151   0.000508
    13  H   -0.003813  -0.000264   0.000025  -0.033187  -0.000516   0.000023
    14  H   -0.010640  -0.000121   0.000013  -0.034411   0.002920   0.000067
    15  H    0.015550   0.000197   0.000068  -0.052529  -0.001304  -0.000023
    16  C   -0.036014  -0.010502  -0.044979   0.280942   0.004261  -0.000250
    17  H    0.013316   0.000850   0.001097  -0.039802   0.000374  -0.000006
    18  H   -0.036783  -0.000096   0.028111  -0.013847  -0.000369  -0.000036
    19  H   -0.003855   0.000383   0.000893  -0.034270  -0.000308   0.000014
    20  H    0.417663  -0.019696   0.005395  -0.053868  -0.000735   0.000003
    21  C   -0.180814   0.382998  -0.075390   0.014961   0.000353   0.000040
    22  H    0.011484  -0.041964   0.002513  -0.001007   0.000023  -0.000000
    23  H    0.023662  -0.061745   0.009003  -0.000994   0.000022   0.000001
    24  H    0.009738  -0.030113   0.001820  -0.002226   0.000175   0.000002
               7          8          9         10         11         12
     1  C   -0.000541   0.017011  -0.025577   0.005642  -0.036105  -0.078818
     2  C    0.000128   0.000445   0.001235  -0.000384   0.005772   0.004330
     3  O   -0.000074  -0.001462  -0.014568   0.000188   0.029797   0.000438
     4  C   -0.002457   0.009181  -0.012420   0.003305  -0.004609   0.279807
     5  C    0.416850   0.413704   0.245485  -0.022634  -0.019948   0.001151
     6  H   -0.019996  -0.025784  -0.024141  -0.002745  -0.006571   0.000508
     7  H    0.515084  -0.023515  -0.035272  -0.006645   0.005247   0.001665
     8  H   -0.023515   0.531496  -0.059173   0.006966  -0.003376  -0.007642
     9  N   -0.035272  -0.059173   6.644812   0.347964   0.356003  -0.001911
    10  H   -0.006645   0.006966   0.347964   0.421563  -0.021868  -0.006767
    11  H    0.005247  -0.003376   0.356003  -0.021868   0.423780   0.005194
    12  C    0.001665  -0.007642  -0.001911  -0.006767   0.005194   5.002302
    13  H   -0.000010  -0.000198   0.005425  -0.000098  -0.000241   0.405485
    14  H   -0.001849   0.000601  -0.007643   0.000145  -0.000086   0.417628
    15  H   -0.000466   0.000053   0.000290   0.000949   0.000445   0.427638
    16  C    0.000175   0.000829  -0.051171  -0.001424  -0.004021  -0.062016
    17  H   -0.000021  -0.000058  -0.002673   0.000460   0.000560  -0.015615
    18  H    0.000001   0.000230  -0.010202   0.000523   0.002552   0.008976
    19  H   -0.000015  -0.000080   0.007095  -0.000162   0.000004   0.000455
    20  H    0.000045   0.000278  -0.000397  -0.000068   0.000028  -0.005664
    21  C   -0.000047  -0.000232   0.000307   0.000000   0.001558  -0.000509
    22  H    0.000001   0.000019  -0.000014   0.000000  -0.000049  -0.000071
    23  H    0.000001  -0.000048   0.000023  -0.000002  -0.000112   0.000020
    24  H    0.000002  -0.000028   0.000210  -0.000003  -0.000204   0.000108
              13         14         15         16         17         18
     1  C   -0.003813  -0.010640   0.015550  -0.036014   0.013316  -0.036783
     2  C   -0.000264  -0.000121   0.000197  -0.010502   0.000850  -0.000096
     3  O    0.000025   0.000013   0.000068  -0.044979   0.001097   0.028111
     4  C   -0.033187  -0.034411  -0.052529   0.280942  -0.039802  -0.013847
     5  C   -0.000516   0.002920  -0.001304   0.004261   0.000374  -0.000369
     6  H    0.000023   0.000067  -0.000023  -0.000250  -0.000006  -0.000036
     7  H   -0.000010  -0.001849  -0.000466   0.000175  -0.000021   0.000001
     8  H   -0.000198   0.000601   0.000053   0.000829  -0.000058   0.000230
     9  N    0.005425  -0.007643   0.000290  -0.051171  -0.002673  -0.010202
    10  H   -0.000098   0.000145   0.000949  -0.001424   0.000460   0.000523
    11  H   -0.000241  -0.000086   0.000445  -0.004021   0.000560   0.002552
    12  C    0.405485   0.417628   0.427638  -0.062016  -0.015615   0.008976
    13  H    0.517403  -0.019074  -0.017974  -0.002003   0.000064  -0.000104
    14  H   -0.019074   0.524771  -0.024295   0.008870  -0.000047  -0.000221
    15  H   -0.017974  -0.024295   0.522258  -0.014856   0.004144   0.000073
    16  C   -0.002003   0.008870  -0.014856   5.072998   0.412082   0.412563
    17  H    0.000064  -0.000047   0.004144   0.412082   0.543127  -0.023681
    18  H   -0.000104  -0.000221   0.000073   0.412563  -0.023681   0.500748
    19  H    0.002175  -0.000143   0.000161   0.392946  -0.020268  -0.014992
    20  H   -0.000330   0.002276   0.000158   0.005469  -0.000134  -0.000169
    21  C    0.000048  -0.000103   0.000029  -0.003055   0.000096   0.001347
    22  H    0.000000   0.000009  -0.000001   0.000494  -0.000009  -0.000191
    23  H   -0.000001   0.000001  -0.000000   0.000113  -0.000003  -0.000097
    24  H   -0.000001  -0.000017  -0.000002  -0.000044   0.000001  -0.000043
              19         20         21         22         23         24
     1  C   -0.003855   0.417663  -0.180814   0.011484   0.023662   0.009738
     2  C    0.000383  -0.019696   0.382998  -0.041964  -0.061745  -0.030113
     3  O    0.000893   0.005395  -0.075390   0.002513   0.009003   0.001820
     4  C   -0.034270  -0.053868   0.014961  -0.001007  -0.000994  -0.002226
     5  C   -0.000308  -0.000735   0.000353   0.000023   0.000022   0.000175
     6  H    0.000014   0.000003   0.000040  -0.000000   0.000001   0.000002
     7  H   -0.000015   0.000045  -0.000047   0.000001   0.000001   0.000002
     8  H   -0.000080   0.000278  -0.000232   0.000019  -0.000048  -0.000028
     9  N    0.007095  -0.000397   0.000307  -0.000014   0.000023   0.000210
    10  H   -0.000162  -0.000068   0.000000   0.000000  -0.000002  -0.000003
    11  H    0.000004   0.000028   0.001558  -0.000049  -0.000112  -0.000204
    12  C    0.000455  -0.005664  -0.000509  -0.000071   0.000020   0.000108
    13  H    0.002175  -0.000330   0.000048   0.000000  -0.000001  -0.000001
    14  H   -0.000143   0.002276  -0.000103   0.000009   0.000001  -0.000017
    15  H    0.000161   0.000158   0.000029  -0.000001  -0.000000  -0.000002
    16  C    0.392946   0.005469  -0.003055   0.000494   0.000113  -0.000044
    17  H   -0.020268  -0.000134   0.000096  -0.000009  -0.000003   0.000001
    18  H   -0.014992  -0.000169   0.001347  -0.000191  -0.000097  -0.000043
    19  H    0.537029  -0.000162   0.000130  -0.000017  -0.000005  -0.000003
    20  H   -0.000162   0.526537  -0.000932   0.000251  -0.000092  -0.002493
    21  C    0.000130  -0.000932   5.044219   0.395085   0.408466   0.388019
    22  H   -0.000017   0.000251   0.395085   0.543802  -0.017345  -0.023682
    23  H   -0.000005  -0.000092   0.408466  -0.017345   0.538675  -0.016453
    24  H   -0.000003  -0.002493   0.388019  -0.023682  -0.016453   0.542832
 Mulliken charges:
               1
     1  C   -0.546735
     2  C    0.335957
     3  O   -0.581324
     4  C    0.237361
     5  C   -0.286597
     6  H    0.146446
     7  H    0.151710
     8  H    0.140785
     9  N   -0.363688
    10  H    0.275095
    11  H    0.266249
    12  C   -0.376691
    13  H    0.147166
    14  H    0.141349
    15  H    0.139438
    16  C   -0.361409
    17  H    0.126149
    18  H    0.145704
    19  H    0.132992
    20  H    0.126636
    21  C   -0.376575
    22  H    0.130667
    23  H    0.116911
    24  H    0.132405
 Sum of Mulliken charges =  -0.00000
 Mulliken charges with hydrogens summed into heavy atoms:
               1
     1  C   -0.420099
     2  C    0.335957
     3  O   -0.581324
     4  C    0.237361
     5  C    0.152345
     9  N    0.177656
    12  C    0.051261
    16  C    0.043436
    21  C    0.003408
 APT charges:
               1
     1  C   -0.667922
     2  C    0.124520
     3  O   -0.384773
     4  C    0.247157
     5  C   -1.093828
     6  H    0.545358
     7  H    0.483344
     8  H    0.136047
     9  N   -0.698193
    10  H    0.689540
    11  H    0.332188
    12  C   -1.273518
    13  H    0.460996
    14  H    0.316421
    15  H    0.453135
    16  C   -1.137568
    17  H    0.437906
    18  H    0.249643
    19  H    0.438206
    20  H    0.371637
    21  C   -1.295744
    22  H    0.428835
    23  H    0.518378
    24  H    0.318234
 Sum of APT charges =  -0.00000
 APT charges with hydrogens summed into heavy atoms:
               1
     1  C   -0.296285
     2  C    0.124520
     3  O   -0.384773
     4  C    0.247157
     5  C    0.070921
     9  N    0.323536
    12  C   -0.042966
    16  C   -0.011813
    21  C   -0.030296
 Electronic spatial extent (au):  <R**2>=           1418.0453
 Charge=             -0.0000 electrons
 Dipole moment (field-independent basis, Debye):
    X=             -6.2649    Y=              1.9456    Z=              1.6692  Tot=              6.7691
 Quadrupole moment (field-independent basis, Debye-Ang):
   XX=            -55.0597   YY=            -53.7443   ZZ=            -59.5722
   XY=             -1.8575   XZ=              7.9424   YZ=             -0.5268
 Traceless Quadrupole moment (field-independent basis, Debye-Ang):
   XX=              1.0657   YY=              2.3811   ZZ=             -3.4468
   XY=             -1.8575   XZ=              7.9424   YZ=             -0.5268
 Octapole moment (field-independent basis, Debye-Ang**2):
  XXX=            -25.5607  YYY=             11.8365  ZZZ=             -1.3843  XYY=             -8.5069
  XXY=              6.0531  XXZ=              4.0364  XZZ=            -15.0561  YZZ=              4.7138
  YYZ=             -3.2725  XYZ=              3.2662
 Hexadecapole moment (field-independent basis, Debye-Ang**3):
 XXXX=          -1012.4539 YYYY=           -486.4435 ZZZZ=           -357.9617 XXXY=            -18.5474
 XXXZ=             29.8138 YYYX=            -10.5989 YYYZ=             -7.7394 ZZZX=             16.6551
 ZZZY=             -4.4163 XXYY=           -251.7865 XXZZ=           -239.3713 YYZZ=           -141.8305
 XXYZ=             -3.1186 YYXZ=             -0.4889 ZZXY=             -5.0430
 N-N= 4.881286516622D+02 E-N=-1.921192073101D+03  KE= 4.036714864709D+02
  Exact polarizability:   0.000   0.000   0.000   0.000   0.000   0.000
 Approx polarizability: 119.983  -0.807 102.533   0.454  -5.418 110.042
   1 Symmetry operations used in ECPInt.
 ECPInt:  NShTT=   12720 NPrTT=   36828 LenC2=   12421 LenP2D=   28468.
 LDataN:  DoStor=T MaxTD1= 8 Len=  415
 D2PCM: PCM CHGder 2nd derivatives, FixD1E=F FixD2E=F DoIter=F DoCFld=F I1PDM=0
 Calling FoFJK, ICntrl=    100147 FMM=F ISym2X=0 I1Cent= 0 IOpClX= 0 NMat=1 NMatS=1 NMatT=0.
 ***** Axes restored to original set *****
 -------------------------------------------------------------------
 Center     Atomic                   Forces (Hartrees/Bohr)
 Number     Number              X              Y              Z
 -------------------------------------------------------------------
      1        6          -0.000043169   -0.000056402   -0.000058189
      2        6           0.000022204    0.000004942   -0.000018941
      3        8          -0.000164509   -0.000094128    0.000001039
      4        6           0.000474694    0.001411818    0.000804710
      5        6          -0.000007460    0.000034724    0.000006823
      6        1          -0.000010520   -0.000006891    0.000005589
      7        1           0.000003353    0.000008088    0.000015330
      8        1           0.000003788   -0.000007061   -0.000005592
      9        7          -0.000464712   -0.001388954   -0.000777184
     10        1           0.000030672    0.000021108   -0.000038055
     11        1           0.000206007    0.000163395    0.000084429
     12        6          -0.000007584   -0.000072447   -0.000004271
     13        1           0.000012090   -0.000005266    0.000012799
     14        1          -0.000009837   -0.000012689   -0.000011097
     15        1           0.000003299    0.000021408   -0.000001316
     16        6          -0.000052156   -0.000050423   -0.000017568
     17        1          -0.000000088    0.000003055   -0.000001095
     18        1           0.000000228    0.000000533   -0.000004116
     19        1           0.000001732    0.000002272    0.000002998
     20        1           0.000000808    0.000017006    0.000006157
     21        6           0.000003213    0.000001235   -0.000003053
     22        1           0.000017266    0.000012043   -0.000031404
     23        1          -0.000008875   -0.000032447    0.000002761
     24        1          -0.000010442    0.000025081    0.000029247
 -------------------------------------------------------------------
 Cartesian Forces:  Max     0.001411818 RMS     0.000282798
 FormGI is forming the generalized inverse of G from B-inverse, IUseBI=4.

 GradGradGradGradGradGradGradGradGradGradGradGradGradGradGradGradGradGrad
 Berny optimization.
 Internal  Forces:  Max     0.001388906 RMS     0.000150451
 Search for a saddle point.
 Step number   1 out of a maximum of   70
 All quantities printed in internal units (Hartrees-Bohrs-Radians)
 Swapping is turned off.
 Second derivative matrix not updated -- analytic derivatives used.
 ITU=  0
     Eigenvalues ---   -0.02964  -0.00096   0.00135   0.00216   0.00269
     Eigenvalues ---    0.00315   0.01039   0.01252   0.01505   0.01934
     Eigenvalues ---    0.03182   0.03994   0.04321   0.04397   0.04534
     Eigenvalues ---    0.04614   0.04641   0.04721   0.04998   0.05427
     Eigenvalues ---    0.05452   0.05608   0.06131   0.06743   0.08371
     Eigenvalues ---    0.10466   0.11785   0.11819   0.12065   0.12324
     Eigenvalues ---    0.12443   0.12637   0.12902   0.13258   0.13295
     Eigenvalues ---    0.14320   0.14853   0.15667   0.16641   0.17587
     Eigenvalues ---    0.17791   0.20198   0.22393   0.25045   0.29895
     Eigenvalues ---    0.31837   0.32165   0.33468   0.33779   0.33838
     Eigenvalues ---    0.33942   0.33967   0.34330   0.34388   0.34451
     Eigenvalues ---    0.34719   0.34877   0.34964   0.35431   0.35892
     Eigenvalues ---    0.37509   0.38547   0.44219   0.45840   0.47860
     Eigenvalues ---    0.68541
 Eigenvectors required to have negative eigenvalues:
                          R6        D7        D10       R2        D5
   1                    0.83194  -0.21753  -0.19635  -0.13545  -0.12118
                          D33       D8        D41       D26       D34
   1                    0.10156  -0.10000  -0.09740  -0.09549   0.09464
 RFO step:  Lambda0=4.067994264D-05 Lambda=-9.70424331D-04.
 Linear search not attempted -- option 19 set.
 Iteration  1 RMS(Cart)=  0.03590550 RMS(Int)=  0.00159602
 Iteration  2 RMS(Cart)=  0.00165971 RMS(Int)=  0.00000521
 Iteration  3 RMS(Cart)=  0.00000284 RMS(Int)=  0.00000473
 Iteration  4 RMS(Cart)=  0.00000000 RMS(Int)=  0.00000473
 Variable       Old X    -DE/DX   Delta X   Delta X   Delta X     New X
                                 (Linear)    (Quad)   (Total)
    R1        2.66977   0.00008   0.00000   0.00319   0.00319   2.67296
    R2        2.65836   0.00017   0.00000  -0.00464  -0.00464   2.65371
    R3        2.04889  -0.00000   0.00000   0.00025   0.00025   2.04914
    R4        2.36122  -0.00001   0.00000  -0.00271  -0.00271   2.35851
    R5        2.87302   0.00000   0.00000   0.00027   0.00027   2.87329
    R6        3.76440  -0.00139   0.00000   0.01487   0.01487   3.77927
    R7        2.84646   0.00001   0.00000   0.00023   0.00023   2.84669
    R8        2.85296   0.00001   0.00000  -0.00065  -0.00065   2.85230
    R9        2.06169  -0.00000   0.00000   0.00005   0.00005   2.06173
   R10        2.05722  -0.00000   0.00000   0.00005   0.00005   2.05726
   R11        2.06504   0.00000   0.00000   0.00012   0.00012   2.06517
   R12        2.74499   0.00001   0.00000   0.00044   0.00044   2.74543
   R13        1.91230   0.00000   0.00000   0.00024   0.00024   1.91255
   R14        1.92025  -0.00011   0.00000  -0.00156  -0.00156   1.91869
   R15        2.06489  -0.00000   0.00000   0.00004   0.00004   2.06493
   R16        2.05939  -0.00000   0.00000   0.00003   0.00003   2.05942
   R17        2.06003   0.00000   0.00000   0.00001   0.00001   2.06004
   R18        2.06171  -0.00000   0.00000  -0.00009  -0.00009   2.06162
   R19        2.05266  -0.00000   0.00000  -0.00017  -0.00017   2.05248
   R20        2.06573  -0.00000   0.00000   0.00012   0.00012   2.06585
   R21        2.06312   0.00000   0.00000  -0.00054  -0.00054   2.06258
   R22        2.05745   0.00000   0.00000  -0.00002  -0.00002   2.05743
   R23        2.06393  -0.00000   0.00000   0.00059   0.00059   2.06452
    A1        2.16903   0.00036   0.00000   0.00475   0.00475   2.17377
    A2        2.04227  -0.00015   0.00000  -0.00322  -0.00322   2.03905
    A3        2.05232  -0.00020   0.00000  -0.00057  -0.00057   2.05175
    A4        2.17481   0.00022   0.00000   0.00283   0.00282   2.17763
    A5        2.03759  -0.00011   0.00000  -0.00292  -0.00292   2.03467
    A6        2.06953  -0.00011   0.00000  -0.00007  -0.00007   2.06947
    A7        1.81527   0.00016   0.00000   0.00221   0.00221   1.81748
    A8        2.03041  -0.00005   0.00000   0.00044   0.00044   2.03085
    A9        2.10646  -0.00003   0.00000   0.00283   0.00283   2.10929
   A10        1.76546  -0.00014   0.00000  -0.00638  -0.00638   1.75908
   A11        1.67196   0.00004   0.00000  -0.00222  -0.00223   1.66974
   A12        1.98043   0.00003   0.00000   0.00033   0.00031   1.98074
   A13        1.90312   0.00000   0.00000  -0.00032  -0.00032   1.90280
   A14        1.89866   0.00001   0.00000   0.00026   0.00026   1.89892
   A15        1.96171  -0.00001   0.00000   0.00135   0.00135   1.96306
   A16        1.90174   0.00000   0.00000  -0.00059  -0.00059   1.90115
   A17        1.91311   0.00000   0.00000  -0.00063  -0.00063   1.91248
   A18        1.88462  -0.00000   0.00000  -0.00012  -0.00012   1.88450
   A19        1.96352  -0.00004   0.00000  -0.00353  -0.00353   1.95999
   A20        1.98344  -0.00002   0.00000   0.00315   0.00314   1.98659
   A21        1.67373   0.00017   0.00000   0.00932   0.00932   1.68305
   A22        1.96668   0.00001   0.00000  -0.00196  -0.00196   1.96471
   A23        1.94849  -0.00007   0.00000  -0.00174  -0.00173   1.94676
   A24        1.90752  -0.00004   0.00000  -0.00389  -0.00391   1.90361
   A25        1.89781   0.00000   0.00000   0.00018   0.00018   1.89799
   A26        1.94636   0.00000   0.00000   0.00018   0.00018   1.94654
   A27        1.94542  -0.00000   0.00000   0.00013   0.00013   1.94555
   A28        1.88451  -0.00000   0.00000   0.00011   0.00011   1.88462
   A29        1.88095   0.00000   0.00000  -0.00030  -0.00030   1.88065
   A30        1.90662  -0.00000   0.00000  -0.00031  -0.00031   1.90631
   A31        1.94893  -0.00000   0.00000  -0.00078  -0.00078   1.94815
   A32        1.94670  -0.00000   0.00000  -0.00002  -0.00002   1.94668
   A33        1.87755   0.00001   0.00000   0.00029   0.00029   1.87784
   A34        1.91920   0.00000   0.00000   0.00087   0.00087   1.92006
   A35        1.87583   0.00000   0.00000  -0.00011  -0.00011   1.87572
   A36        1.89292  -0.00000   0.00000  -0.00026  -0.00026   1.89266
   A37        1.93333   0.00001   0.00000   0.00492   0.00492   1.93825
   A38        1.92132  -0.00000   0.00000  -0.00036  -0.00037   1.92095
   A39        1.92667  -0.00000   0.00000  -0.00528  -0.00529   1.92139
   A40        1.90784   0.00000   0.00000   0.00288   0.00287   1.91070
   A41        1.87195   0.00000   0.00000   0.00039   0.00040   1.87235
   A42        1.90180  -0.00000   0.00000  -0.00258  -0.00260   1.89920
    D1        0.07271  -0.00008   0.00000  -0.00721  -0.00721   0.06550
    D2       -3.12366  -0.00002   0.00000  -0.01072  -0.01072  -3.13438
    D3       -2.85193  -0.00016   0.00000  -0.01237  -0.01236  -2.86429
    D4        0.23489  -0.00010   0.00000  -0.01587  -0.01587   0.21902
    D5       -1.07391  -0.00025   0.00000  -0.02629  -0.02630  -1.10020
    D6       -2.99793  -0.00017   0.00000  -0.02019  -0.02019  -3.01812
    D7        0.76936  -0.00011   0.00000  -0.02633  -0.02633   0.74303
    D8        1.84959  -0.00016   0.00000  -0.02141  -0.02141   1.82818
    D9       -0.07443  -0.00008   0.00000  -0.01530  -0.01530  -0.08973
   D10       -2.59033  -0.00002   0.00000  -0.02144  -0.02144  -2.61177
   D11        1.02683  -0.00007   0.00000  -0.08177  -0.08178   0.94505
   D12        3.13894  -0.00007   0.00000  -0.07517  -0.07518   3.06377
   D13       -1.04398  -0.00007   0.00000  -0.08201  -0.08200  -1.12599
   D14       -2.16610  -0.00000   0.00000  -0.08495  -0.08496  -2.25105
   D15       -0.05398   0.00000   0.00000  -0.07836  -0.07836  -0.13234
   D16        2.04628  -0.00000   0.00000  -0.08519  -0.08518   1.96110
   D17       -0.99543   0.00005   0.00000   0.01644   0.01644  -0.97899
   D18        3.02638   0.00008   0.00000   0.01959   0.01960   3.04598
   D19        1.03552   0.00004   0.00000   0.01813   0.01812   1.05364
   D20        1.11659  -0.00000   0.00000   0.01515   0.01514   1.13173
   D21       -1.14479   0.00003   0.00000   0.01831   0.01831  -1.12648
   D22       -3.13565  -0.00001   0.00000   0.01684   0.01683  -3.11882
   D23        3.12970   0.00002   0.00000   0.01359   0.01359  -3.13989
   D24        0.86832   0.00005   0.00000   0.01674   0.01676   0.88508
   D25       -1.12254   0.00001   0.00000   0.01528   0.01528  -1.10726
   D26       -1.34300   0.00004   0.00000  -0.00985  -0.00985  -1.35285
   D27        0.73303   0.00004   0.00000  -0.00949  -0.00949   0.72354
   D28        2.86911   0.00004   0.00000  -0.00967  -0.00967   2.85944
   D29        2.98730  -0.00005   0.00000  -0.00875  -0.00875   2.97855
   D30       -1.21985  -0.00005   0.00000  -0.00839  -0.00839  -1.22825
   D31        0.91623  -0.00005   0.00000  -0.00857  -0.00857   0.90766
   D32        1.21737  -0.00003   0.00000  -0.00326  -0.00326   1.21410
   D33       -2.98979  -0.00003   0.00000  -0.00290  -0.00290  -2.99269
   D34       -0.85371  -0.00003   0.00000  -0.00308  -0.00308  -0.85679
   D35       -2.87638  -0.00010   0.00000   0.00094   0.00094  -2.87544
   D36       -0.72118  -0.00010   0.00000   0.00148   0.00149  -0.71970
   D37        1.35258  -0.00010   0.00000   0.00134   0.00134   1.35392
   D38       -0.95530   0.00011   0.00000   0.00304   0.00304  -0.95226
   D39        1.19990   0.00011   0.00000   0.00358   0.00358   1.20349
   D40       -3.00952   0.00011   0.00000   0.00344   0.00344  -3.00608
   D41        0.87442  -0.00001   0.00000  -0.00504  -0.00504   0.86938
   D42        3.02963  -0.00001   0.00000  -0.00450  -0.00450   3.02513
   D43       -1.17980  -0.00001   0.00000  -0.00464  -0.00464  -1.18444
   D44        2.74915   0.00006   0.00000   0.00008   0.00008   2.74923
   D45       -1.26405   0.00001   0.00000  -0.00041  -0.00041  -1.26445
   D46        0.89039  -0.00009   0.00000  -0.00833  -0.00833   0.88206
   D47       -1.41469   0.00005   0.00000   0.00014   0.00014  -1.41455
   D48        0.85530   0.00001   0.00000  -0.00035  -0.00035   0.85495
   D49        3.00973  -0.00009   0.00000  -0.00827  -0.00827   3.00147
   D50        0.65484   0.00006   0.00000  -0.00099  -0.00099   0.65384
   D51        2.92482   0.00001   0.00000  -0.00148  -0.00148   2.92335
   D52       -1.20393  -0.00009   0.00000  -0.00940  -0.00940  -1.21332
         Item               Value     Threshold  Converged?
 Maximum Force            0.001389     0.000450     NO 
 RMS     Force            0.000150     0.000300     YES
 Maximum Displacement     0.177581     0.001800     NO 
 RMS     Displacement     0.035959     0.001200     NO 
 Predicted change in Energy=-4.676908D-05
 GradGradGradGradGradGradGradGradGradGradGradGradGradGradGradGradGradGrad

                          Input orientation:                          
 ---------------------------------------------------------------------
 Center     Atomic      Atomic             Coordinates (Angstroms)
 Number     Number       Type             X           Y           Z
 ---------------------------------------------------------------------
      1          6           0       -0.510061   -0.418422   -0.732047
      2          6           0       -1.648805   -0.099158    0.043877
      3          8           0       -1.653052    0.019489    1.286287
      4          6           0        0.755437   -0.719139   -0.202804
      5          6           0        1.293155    2.113504   -0.155515
      6          1           0        1.202843    3.055739    0.387041
      7          1           0        2.207555    2.130332   -0.746077
      8          1           0        0.438275    2.011343   -0.828600
      9          7           0        1.306685    0.961823    0.729997
     10          1           0        2.173877    0.877997    1.245022
     11          1           0        0.532284    0.986969    1.386168
     12          6           0        1.877212   -0.870929   -1.196702
     13          1           0        1.794147   -1.850823   -1.673074
     14          1           0        1.825503   -0.112002   -1.977100
     15          1           0        2.851280   -0.819459   -0.709963
     16          6           0        0.896812   -1.613157    1.005067
     17          1           0        1.890744   -1.535990    1.448166
     18          1           0        0.138911   -1.396595    1.752301
     19          1           0        0.766404   -2.645301    0.669270
     20          1           0       -0.576712   -0.232923   -1.798337
     21          6           0       -2.932912    0.187100   -0.718342
     22          1           0       -3.178871   -0.633716   -1.394412
     23          1           0       -3.754623    0.341640   -0.021011
     24          1           0       -2.814767    1.085658   -1.328413
 ---------------------------------------------------------------------
                    Distance matrix (angstroms):
                    1          2          3          4          5
     1  C    0.000000
     2  C    1.414470   0.000000
     3  O    2.360480   1.248070   0.000000
     4  C    1.404284   2.495117   2.926395   0.000000
     5  C    3.161428   3.686565   3.891508   2.883616   0.000000
     6  H    4.031897   4.266502   4.264223   3.846790   1.091023
     7  H    3.725826   4.523955   4.846695   3.243960   1.088657
     8  H    2.610061   3.093757   3.579648   2.819174   1.092840
     9  N    2.709837   3.214244   3.155551   1.999906   1.452819
    10  H    3.576734   4.124376   3.922260   2.580507   2.064862
    11  H    2.747443   2.781828   2.392006   2.342101   2.055430
    12  C    2.473811   3.816735   4.406909   1.506404   3.214348
    13  H    2.871703   4.227312   4.913152   2.126339   4.274326
    14  H    2.664378   4.019369   4.771512   2.159115   2.924798
    15  H    3.385252   4.619293   4.997785   2.158664   3.367111
    16  C    2.534610   3.113879   3.040793   1.509373   3.923269
    17  H    3.430183   4.070003   3.873527   2.163763   4.030846
    18  H    2.747721   2.792488   2.331007   2.159048   4.158466
    19  H    2.924388   3.564716   3.651792   2.114412   4.858391
    20  H    1.084356   2.135657   3.276756   2.134656   3.420671
    21  C    2.497409   1.520478   2.384255   3.832880   4.678403
    22  H    2.758192   2.166917   3.152927   4.111692   5.392690
    23  H    3.407410   2.152436   2.495878   4.636695   5.351416
    24  H    2.815951   2.155559   3.053351   4.155797   4.393994
                    6          7          8          9         10
     6  H    0.000000
     7  H    1.774762   0.000000
     8  H    1.775700   1.775196   0.000000
     9  N    2.124356   2.087049   2.069988   0.000000
    10  H    2.534087   2.352436   2.932012   1.012076   0.000000
    11  H    2.393264   2.942836   2.442003   1.015328   1.651249
    12  C    4.287393   3.052828   3.242458   2.719678   3.018074
    13  H    5.354257   4.108507   4.179456   3.731400   4.013220
    14  H    4.001432   2.586396   2.784250   2.958149   3.388736
    15  H    4.351772   3.019429   3.721573   2.762647   2.676228
    16  C    4.719555   4.335697   4.087736   2.621866   2.809684
    17  H    4.762686   4.284507   4.458352   2.663825   2.439010
    18  H    4.776941   4.791701   4.285407   2.823285   3.093895
    19  H    5.724683   5.185248   4.902613   3.647867   3.837460
    20  H    4.331050   3.800575   2.647134   3.371510   4.249932
    21  C    5.153197   5.495573   3.834700   4.546655   5.514656
    22  H    5.998756   6.088833   4.516661   5.213355   6.156606
    23  H    5.666508   6.266794   4.584811   5.154171   6.085854
    24  H    4.792202   5.162769   3.418917   4.608553   5.617140
                   11         12         13         14         15
    11  H    0.000000
    12  C    3.454249   0.000000
    13  H    4.359395   1.092713   0.000000
    14  H    3.767190   1.089800   1.765478   0.000000
    15  H    3.610358   1.090125   1.763186   1.777175   0.000000
    16  C    2.653069   2.521879   2.834454   3.465437   2.718681
    17  H    2.866109   2.727236   3.138565   3.710047   2.468515
    18  H    2.443394   3.463327   3.831360   4.289895   3.708473
    19  H    3.709736   2.804308   2.678437   3.813472   3.095592
    20  H    3.585957   2.605909   2.873024   2.411890   3.644134
    21  C    4.132353   4.948288   5.235430   4.931171   5.871125
    22  H    4.912323   5.065504   5.127368   5.065123   6.071712
    23  H    4.557869   5.879637   6.190723   5.930419   6.742459
    24  H    4.310620   5.085298   5.475746   4.836041   6.009662
                   16         17         18         19         20
    16  C    0.000000
    17  H    1.090960   0.000000
    18  H    1.086126   1.783493   0.000000
    19  H    1.093201   1.761076   1.768041   0.000000
    20  H    3.454764   4.280901   3.804377   3.703056   0.000000
    21  C    4.569229   5.561516   4.248325   4.861369   2.625736
    22  H    4.829906   5.881781   4.635889   4.885740   2.663648
    23  H    5.148777   6.128143   4.617976   5.462416   3.686208
    24  H    5.148257   6.060055   4.937266   5.543968   2.639768
                   21         22         23         24
    21  C    0.000000
    22  H    1.091469   0.000000
    23  H    1.088743   1.780180   0.000000
    24  H    1.092497   1.758742   1.773750   0.000000
 Stoichiometry    C7H15NO
 Framework group  C1[X(C7H15NO)]
 Deg. of freedom    66
 Full point group                 C1      NOp   1
 Largest Abelian subgroup         C1      NOp   1
 Largest concise Abelian subgroup C1      NOp   1
                         Standard orientation:                         
 ---------------------------------------------------------------------
 Center     Atomic      Atomic             Coordinates (Angstroms)
 Number     Number       Type             X           Y           Z
 ---------------------------------------------------------------------
      1          6           0        0.509641   -0.392729    0.742698
      2          6           0        1.646640   -0.084990   -0.040408
      3          8           0        1.650515    0.004246   -1.285277
      4          6           0       -0.753857   -0.713583    0.220547
      5          6           0       -1.308779    2.113822    0.106162
      6          1           0       -1.224047    3.043486   -0.458528
      7          1           0       -2.223431    2.139054    0.696035
      8          1           0       -0.453483    2.032823    0.781593
      9          7           0       -1.315056    0.941447   -0.751849
     10          1           0       -2.181576    0.840181   -1.264865
     11          1           0       -0.540638    0.955772   -1.408326
     12          6           0       -1.874967   -0.848637    1.217604
     13          1           0       -1.786077   -1.816460    1.717043
     14          1           0       -1.828094   -0.071155    1.979831
     15          1           0       -2.849193   -0.814629    0.729650
     16          6           0       -0.889452   -1.636778   -0.965849
     17          1           0       -1.883710   -1.576170   -1.410786
     18          1           0       -0.132672   -1.433350   -1.717894
     19          1           0       -0.752863   -2.659874   -0.605702
     20          1           0        0.574863   -0.181647    1.804309
     21          6           0        2.928768    0.227035    0.714999
     22          1           0        3.179524   -0.576040    1.410338
     23          1           0        3.749719    0.370030    0.014319
     24          1           0        2.804989    1.139042    1.303618
 ---------------------------------------------------------------------
 Rotational constants (GHZ):           1.9893878           1.1232733           1.0077456
 Standard basis: def2TZVP (5D, 7F)
 There are   414 symmetry adapted cartesian basis functions of A   symmetry.
 There are   369 symmetry adapted basis functions of A   symmetry.
   369 basis functions,   579 primitive gaussians,   414 cartesian basis functions
    36 alpha electrons       36 beta electrons
       nuclear repulsion energy       487.5915865502 Hartrees.
 NAtoms=   24 NActive=   24 NUniq=   24 SFac= 1.00D+00 NAtFMM=   60 NAOKFM=F Big=F
 Integral buffers will be    131072 words long.
 Raffenetti 2 integral format.
 Two-electron integral symmetry is turned on.
 Nuclear repulsion after empirical dispersion term =      487.5746570156 Hartrees.
 ------------------------------------------------------------------------------
 Polarizable Continuum Model (PCM)
 =================================
 Model                : PCM.
 Atomic radii         : UFF (Universal Force Field).
 Polarization charges : Total charges.
 Charge compensation  : None.
 Solution method      : Matrix inversion.
 Cavity type          : Scaled VdW (van der Waals Surface) (Alpha=1.100).
 Cavity algorithm     : GePol (No added spheres)
                        Default sphere list used, NSphG=   24.
                        Lebedev-Laikov grids with approx.  5.0 points / Ang**2.
                        Smoothing algorithm: York/Karplus (Gamma=1.0000).
                        Polarization charges: spherical gaussians, with
                                              point-specific exponents (IZeta= 3).
                        Self-potential: point-specific (ISelfS= 7).
                        Self-field    : sphere-specific E.n sum rule (ISelfD= 2).
 1st derivatives      : Analytical E(r).r(x)/FMM algorithm (CHGder, D1EAlg=3).
                        Cavity 1st derivative terms included.
 Solvent              : Water, Eps=  78.355300 Eps(inf)=   1.777849
 ------------------------------------------------------------------------------
 One-electron integrals computed using PRISM.
   1 Symmetry operations used in ECPInt.
 ECPInt:  NShTT=   12720 NPrTT=   36828 LenC2=   12422 LenP2D=   28453.
 LDataN:  DoStor=T MaxTD1= 6 Len=  172
 NBasis=   369 RedAO= T EigKep=  7.46D-05  NBF=   369
 NBsUse=   369 1.00D-06 EigRej= -1.00D+00 NBFU=   369
 Initial guess from the checkpoint file:  "/beegfs/scratch/user/q/tla25/Gau-28268.chk"
 B after Tr=     0.000000    0.000000    0.000000
         Rot=    0.999926    0.011914    0.000340   -0.002323 Ang=   1.39 deg.
 ExpMin= 9.52D-02 ExpMax= 2.70D+04 ExpMxC= 9.22D+02 IAcc=2 IRadAn=         4 AccDes= 0.00D+00
 Harris functional with IExCor= 4639 and IRadAn=       4 diagonalized for initial guess.
 HarFok:  IExCor= 4639 AccDes= 0.00D+00 IRadAn=         4 IDoV= 1 UseB2=F ITyADJ=14
 ICtDFT=  3500011 ScaDFX=  1.000000  1.000000  1.000000  1.000000
 FoFCou: FMM=F IPFlag=           0 FMFlag=      100000 FMFlg1=           0
         NFxFlg=           0 DoJE=T BraDBF=F KetDBF=T FulRan=T
         wScrn=  0.000000 ICntrl=       500 IOpCl=  0 I1Cent=   200000004 NGrid=           0
         NMat0=    1 NMatS0=      1 NMatT0=    0 NMatD0=    1 NMtDS0=    0 NMtDT0=    0
 Petite list used in FoFCou.
 Requested convergence on RMS density matrix=1.00D-08 within 128 cycles.
 Requested convergence on MAX density matrix=1.00D-06.
 Requested convergence on             energy=1.00D-06.
 No special actions if energy rises.
 Inv3:  Mode=1 IEnd=     8396787.
 Iteration    1 A*A^-1 deviation from unit magnitude is 4.22D-15 for   1668.
 Iteration    1 A*A^-1 deviation from orthogonality  is 2.07D-15 for   1441    382.
 Iteration    1 A^-1*A deviation from unit magnitude is 4.22D-15 for   1668.
 Iteration    1 A^-1*A deviation from orthogonality  is 1.60D-14 for   1303   1279.
 Error on total polarization charges =  0.01301
 SCF Done:  E(RwB97XD) =  -405.748272781     A.U. after   12 cycles
            NFock= 12  Conv=0.26D-08     -V/T= 2.0051
   1 Symmetry operations used in ECPInt.
 ECPInt:  NShTT=   12720 NPrTT=   36828 LenC2=   12422 LenP2D=   28453.
 LDataN:  DoStor=T MaxTD1= 7 Len=  274
 D1PCM: PCM CHGder 1st derivatives, ID1Alg=3 FixD1E=F DoIter=F DoCFld=F I1PDM=0.
 Calling FoFJK, ICntrl=      2127 FMM=F ISym2X=0 I1Cent= 0 IOpClX= 0 NMat=1 NMatS=1 NMatT=0.
 ***** Axes restored to original set *****
 -------------------------------------------------------------------
 Center     Atomic                   Forces (Hartrees/Bohr)
 Number     Number              X              Y              Z
 -------------------------------------------------------------------
      1        6          -0.000101692   -0.000117767   -0.000010709
      2        6          -0.000001400   -0.000033814   -0.000088681
      3        8          -0.000185133    0.000070104    0.000018204
      4        6           0.000084942    0.000061140    0.000072370
      5        6          -0.000019077   -0.000006912    0.000006852
      6        1          -0.000007591   -0.000007604    0.000006327
      7        1           0.000001972    0.000007493    0.000011085
      8        1           0.000025649    0.000051035    0.000000582
      9        7          -0.000036901   -0.000073891   -0.000085153
     10        1           0.000023598    0.000002712   -0.000035876
     11        1           0.000179778    0.000088905    0.000043115
     12        6           0.000013223   -0.000009715    0.000020675
     13        1           0.000002361   -0.000001276    0.000007932
     14        1          -0.000002122   -0.000016569   -0.000015231
     15        1          -0.000001722    0.000010588    0.000008301
     16        6          -0.000038912   -0.000024092   -0.000003144
     17        1          -0.000000347    0.000011160   -0.000005994
     18        1           0.000049329   -0.000037712   -0.000005572
     19        1          -0.000009531   -0.000005658    0.000003717
     20        1           0.000008512    0.000006156    0.000013874
     21        6           0.000036700   -0.000005967    0.000017472
     22        1           0.000048002    0.000035742   -0.000074308
     23        1          -0.000034012   -0.000076049   -0.000001902
     24        1          -0.000035626    0.000071990    0.000096066
 -------------------------------------------------------------------
 Cartesian Forces:  Max     0.000185133 RMS     0.000051718

[...]
 ,-0.00188212,0.00291132,0.00091745,-0.08434226,0.01165290,-0.00767836,
 -0.00036402,-0.00065892,-0.00054738,-0.00003434,-0.00028750,0.00017610
 ,0.00001818,0.00002901,0.00008543,-0.00024775,-0.00010189,-0.00012758,
 -0.00019555,-0.00453106,0.00169166,-0.00022349,-0.00126991,0.00014320,
 0.00010604,0.00096984,0.00018869,0.00108048,-0.01455821,0.02178818,0.0
 0055921,-0.00009873,-0.00039145,-0.00329178,0.00037659,0.00412606,0.00
 079976,-0.00066987,0.00062106,0.59854217,-0.00385472,0.00067612,0.0066
 7615,0.00101090,-0.00306773,-0.00413130,0.00314571,0.00029099,0.002987
 96,0.01783539,-0.09705086,0.06655596,-0.00055256,-0.00303684,-0.004459
 45,-0.00015444,-0.00169854,0.00121676,-0.00019739,-0.00005993,0.000153
 02,-0.00004053,0.00000644,0.00001870,-0.00556237,-0.02890825,0.0083237
 3,-0.00011351,-0.00019106,0.00029355,-0.00019022,-0.00026431,0.0008300
 3,-0.00195801,0.00627538,-0.00140344,-0.00015234,-0.00021618,0.0003849
 7,0.00162558,0.00060830,-0.00192051,0.00026563,-0.00026925,-0.00026482
 ,-0.00396332,0.51673526,-0.00800043,0.00897306,-0.00975312,0.00099240,
 -0.00240669,0.00027018,-0.00253229,0.00313516,0.00027400,-0.00099722,0
 .06379996,-0.17249901,-0.00014967,-0.00129608,-0.00174010,-0.00014688,
 -0.00075422,0.00056230,-0.00009391,-0.00009990,0.00009785,-0.00013730,
 -0.00016277,0.00005376,-0.00114833,-0.00648880,0.00283052,0.00030020,-
 0.00070020,0.00029613,-0.00050370,-0.00037334,0.00095472,0.00213904,0.
 01595802,-0.02378286,-0.00072636,0.00030128,0.00065086,0.00244243,-0.0
 0051165,-0.00224666,-0.00127135,0.00019403,0.00124209,-0.01857832,0.04
 710798,0.53588879,0.00090547,0.00049174,-0.00047703,0.00081038,-0.0003
 0653,0.00012304,-0.00089885,0.00107894,-0.00017184,-0.00345397,-0.0009
 3069,-0.00031359,0.00012637,0.00000737,-0.00018556,0.00003687,-0.00005
 016,0.00004318,0.00000353,0.00001186,0.00000328,0.00008046,-0.00004802
 ,0.00006136,0.00050220,-0.00086524,0.00116075,0.00035337,0.00041912,0.
 00008931,-0.00019461,0.00002744,-0.00017926,0.00069965,-0.00012449,0.0
 0089509,-0.00001465,0.00002291,0.00006631,0.00021603,0.00013317,0.0000
 4574,0.00037775,-0.00022755,-0.00000297,-0.27392356,-0.01833929,-0.096
 08406,0.29426617,-0.00193226,-0.00010831,0.00316459,0.00036771,0.00032
 208,-0.00076875,0.00034703,-0.00058716,0.00039743,0.02027977,-0.001177
 12,0.00950409,-0.00009361,0.00009405,0.00000955,0.00001355,0.00010490,
 -0.00002968,0.00002852,0.00002298,-0.00001677,0.00007632,0.00011776,-0
 .00000510,0.00024423,-0.00034612,0.00019311,-0.00034300,-0.00193233,0.
 00005961,0.00012319,-0.00005391,-0.00016773,0.00052181,0.00004877,-0.0
 0093979,-0.00008244,0.00001392,-0.00011104,0.00000345,-0.00009621,-0.0
 0021120,-0.00041273,0.00014750,0.00001884,-0.02052447,-0.04624535,-0.0
 0972916,0.02191627,0.05137154,-0.00161529,0.00356064,-0.00363179,0.001
 82644,-0.00095557,-0.00338790,0.00046689,-0.00064262,0.00242718,-0.024
 38598,-0.00437450,-0.00979709,0.00007274,-0.00003082,-0.00032835,0.000
 04888,-0.00010533,0.00008900,-0.00000035,0.00001917,0.00000449,0.00002
 843,-0.00007301,0.00004667,-0.00002328,-0.00136586,0.00052182,0.000070
 89,0.00064214,0.00045558,-0.00003262,-0.00001149,0.00003350,-0.0010912
 6,-0.00020557,0.00077539,-0.00000589,0.00006488,0.00006027,0.00017827,
 0.00000874,0.00039964,0.00079313,0.00015275,-0.00051563,-0.09267043,-0
 .00706936,-0.08956181,0.10595167,0.00566138,0.09553326,-0.00131890,-0.
 00014547,0.00024278,0.00053824,0.00002765,-0.00289725,-0.00284916,0.00
 116104,0.00162022,0.00431042,-0.00225567,-0.00159490,0.00010985,0.0000
 6823,-0.00006579,0.00000943,0.00000878,0.00000912,-0.00000065,0.000026
 17,-0.00002991,0.00001619,0.00003377,0.00002744,-0.00064966,-0.0003023
 8,-0.00069657,-0.00008920,-0.00008861,0.00004586,0.00023015,-0.0005800
 5,0.00017218,0.00068501,0.00053909,-0.00037361,-0.00020566,0.00015585,
 0.00012816,0.00035148,0.00024787,-0.00004932,0.00036748,0.00002623,-0.
 00010587,-0.18349211,0.04619850,0.13399077,-0.01625491,0.00689118,0.01
 889752,0.19309769,0.00125330,0.00007643,-0.00161832,-0.00026431,0.0003
 3505,0.00321213,0.00038419,-0.00079357,-0.00197220,-0.01732743,0.00358
 136,0.01405333,0.00014486,0.00004715,0.00025530,-0.00001222,0.00010927
 ,-0.00006811,0.00001193,0.00006579,-0.00004228,-0.00004357,-0.00001495
 ,-0.00003293,0.00023721,0.00109394,0.00033819,0.00001918,0.00013231,-0
 .00002740,-0.00032776,-0.00132657,0.00009899,0.00074725,-0.00217298,0.
 00308212,0.00004011,0.00021426,0.00015555,-0.00057647,0.00021850,0.001
 08022,0.00028181,-0.00010542,-0.00016739,0.04792562,-0.06215633,-0.050
 39768,-0.00325418,0.00002629,0.00382943,-0.05053176,0.06660945,-0.0022
 8533,0.00038304,0.00149510,0.00011586,-0.00020959,-0.00408671,0.001854
 46,-0.00148679,0.00264618,0.02137980,-0.00868797,-0.01681203,-0.000240
 25,0.00009811,-0.00022645,0.00002311,-0.00005983,0.00005423,-0.0000379
 5,-0.00008775,0.00003806,0.00008283,0.00002267,0.00002335,-0.00062987,
 -0.00119094,0.00016184,-0.00005786,0.00001060,-0.00000376,0.00018999,0
 .00087911,0.00028934,-0.00149651,0.00416166,-0.00321483,-0.00035976,-0
 .00005494,0.00031879,0.00120484,-0.00009768,-0.00099823,0.00003995,0.0
 0000958,0.00015585,0.12935716,-0.04588576,-0.17816821,-0.00994746,0.00
 429208,0.01100739,-0.14405709,0.04893610,0.19211157,-0.00054595,0.0002
 0605,-0.00050782,0.00063368,0.00016346,0.00006312,-0.00122325,-0.00000
 522,-0.00008839,-0.00156850,0.00307643,0.00004947,0.00019948,-0.000085
 21,-0.00046234,0.00005898,-0.00010649,0.00011812,0.00000472,0.00005128
 ,-0.00001422,0.00008933,-0.00000566,0.00007496,0.00031295,-0.00109840,
 0.00066556,0.00011831,0.00073077,0.00013256,-0.00012256,-0.00032822,-0
 .00011090,0.00005278,0.00025620,0.00029521,-0.00002567,-0.00010620,0.0
 0028363,-0.00004179,0.00008509,-0.00004201,0.00008986,-0.00009410,-0.0
 0004042,-0.04918712,-0.03531051,-0.00952768,-0.00323328,-0.02828487,-0
 .00745750,0.00492505,0.02155828,0.00463345,0.04952939,-0.00093752,0.00
 150503,0.00045099,0.00000716,-0.00032409,-0.00099630,0.00072839,-0.000
 24162,0.00052865,-0.00203230,-0.01903480,-0.00531587,-0.00014467,-0.00
 048062,-0.00126410,-0.00008143,-0.00039478,0.00033339,-0.00005512,-0.0
 0006168,0.00008571,-0.00001748,-0.00000281,0.00001977,0.00012368,-0.00
 216639,0.00270756,0.00011078,0.00023745,0.00013745,-0.00006977,0.00054
 994,0.00030341,0.00006990,0.00049021,-0.00071071,-0.00019671,0.0002851
 1,0.00035068,0.00018169,0.00028222,0.00013858,0.00008159,-0.00000578,0
 .00002211,-0.03576097,-0.28480815,-0.06924396,-0.00012446,-0.00116989,
 -0.00033159,-0.00147687,-0.00581761,-0.00111284,0.03929701,0.31088708,
 -0.00038687,0.00056122,-0.00014495,0.00107811,0.00029426,-0.00109173,0
 .00061784,-0.00045973,0.00104987,0.00263267,0.02371918,0.00595526,-0.0
 0005192,0.00089382,0.00075787,0.00012370,0.00034514,-0.00020564,0.0000
 2666,-0.00001723,-0.00002955,0.00015971,0.00002256,0.00006816,0.000488
 81,0.00278441,-0.00118319,0.00006076,0.00036192,-0.00009435,0.00000834
 ,0.00032709,-0.00027946,0.00011777,-0.00063564,0.00060691,0.00016702,0
 .00010841,-0.00043534,-0.00030922,-0.00019688,0.00026998,0.00001478,0.
 00002056,0.00000508,-0.01000548,-0.06907115,-0.06594107,-0.00080889,-0
 .01165375,-0.00394968,-0.00572702,-0.02012185,-0.00525260,0.01206290,0
 .07367495,0.06984564,-0.05487181,0.00724360,-0.01190647,0.00623151,-0.
 00694982,0.02248032,-0.00414692,0.00439961,0.00523515,-0.00074858,0.00
 672086,-0.02724687,0.00023508,-0.00009429,-0.00001759,-0.00007451,-0.0
 0012685,0.00009519,0.00000578,-0.00001601,0.00005889,-0.00029337,-0.00
 038278,-0.00014594,-0.00115092,-0.00004518,-0.00094065,0.00005544,-0.0
 0042268,-0.00019958,-0.00023954,0.00007200,0.00011330,0.00015803,-0.00
 010626,-0.00215011,0.00004288,-0.00000851,-0.00001790,-0.00063308,-0.0
 0038349,0.00035666,0.00011564,-0.00012990,0.00019733,-0.00336419,0.000
 70577,0.00000655,-0.00008958,0.00077868,-0.00082130,-0.00012315,-0.000
 06898,0.00006073,-0.00009083,0.00025228,-0.00022548,0.06132766,-0.0000
 6868,-0.02304554,0.04885446,0.00415204,-0.00507029,-0.01342383,0.00276
 593,0.00586645,0.00311853,0.00616537,0.00020610,0.01082358,0.00039335,
 0.00025274,-0.00012981,-0.00001209,-0.00022145,0.00019939,0.00008981,-
 0.00001169,0.00011892,-0.00041744,-0.00085334,-0.00018578,-0.00274849,
 -0.00198671,-0.00275691,0.00001148,-0.00090382,-0.00032152,-0.00026274
 ,0.00009603,0.00018856,-0.00127592,-0.00211894,-0.00083958,0.00018882,
 -0.00046958,-0.00023165,0.00005955,0.00001851,0.00027331,-0.00041617,-
 0.00025884,-0.00008685,0.00351324,0.00328245,0.00260374,0.00036370,-0.
 00059471,0.00112686,-0.00022726,-0.00000723,-0.00011118,-0.00025800,0.
 00032146,-0.00090809,-0.01167844,0.02751836,-0.01265407,0.04363744,-0.
 32801578,-0.00665221,0.00388049,-0.01495737,0.00444411,-0.00097766,-0.
 00128036,0.00234393,0.00326275,-0.00953205,-0.00017661,0.00043432,-0.0
 0038712,0.00013226,-0.00007351,0.00018475,0.00001789,-0.00002764,0.000
 04262,0.00018420,-0.00022419,0.00007689,-0.00046947,-0.00021143,-0.000
 35253,-0.00000151,-0.00016835,0.00001072,0.00012840,0.00019356,0.00016
 658,0.00166571,-0.00063902,0.00080058,-0.00028406,0.00005370,0.0000173
 7,-0.00051183,-0.00012940,0.00064873,0.00006583,-0.00026754,0.00026832
 ,-0.00138062,-0.00064560,0.00092080,-0.00016446,0.00037107,-0.00035953
 ,0.00016130,-0.00015140,0.00011923,-0.00003147,0.00015529,-0.00007634,
 0.01462937,-0.04784491,0.34993774,-0.02655907,0.01056624,-0.01267170,-
 0.16870790,0.02060692,-0.02564571,0.00613600,0.00002701,-0.02126872,-0
 .00007995,0.00231909,0.00352075,0.00008123,0.00008391,-0.00015251,-0.0
 0001660,-0.00009108,0.00002485,0.00000855,-0.00001108,0.00004549,-0.00
 000893,0.00009353,0.00004501,-0.00010790,-0.00040492,-0.00029066,0.000
 02567,-0.00005940,-0.00000024,0.00012873,0.00013184,0.00012043,-0.0006
 9188,-0.00028340,-0.00080255,0.00003099,0.00002533,-0.00001811,-0.0000
 0878,-0.00003658,0.00005996,-0.00036272,-0.00000337,0.00019052,-0.0001
 1901,-0.00019363,0.00000789,-0.00021053,0.00007700,-0.00010209,0.00021
 454,-0.00009282,0.00013265,0.00004105,0.00003023,-0.00003245,-0.000737
 82,-0.00040093,-0.00120292,0.48505848,0.01088222,0.01298929,0.00469036
 ,0.01880194,-0.08784075,0.00701500,-0.00071183,0.01449814,-0.00263385,
 0.00242904,0.00645800,-0.00087532,0.00010345,-0.00007101,0.00021288,0.
 00000732,0.00006520,-0.00004439,0.00000328,0.00001740,-0.00002623,0.00
 001373,-0.00002454,-0.00004158,0.00138945,0.00056207,0.00051661,0.0001
 6793,0.00035358,0.00008692,-0.00028732,-0.00026842,-0.00014724,-0.0002
 3623,-0.00166680,-0.00048685,0.00041088,-0.00009920,-0.00021945,-0.000
 09725,0.00002627,0.00012738,-0.00010603,-0.00019500,0.00004450,-0.0007
 3667,0.00000973,0.00009494,-0.00021170,0.00005273,0.00002542,0.0002116
 5,-0.00012144,0.00015747,0.00025257,-0.00004565,-0.00003798,-0.0002325
 5,-0.00240705,-0.00095079,0.00800594,0.53620802,0.01013462,-0.00396840
 ,0.01081786,-0.03580410,0.00912978,-0.09527495,-0.04129413,0.00419594,
 -0.04585581,0.00180488,-0.00133485,-0.00258979,-0.00004790,0.00006002,
 0.00005485,0.00001669,0.00002556,-0.00002779,0.00002206,-0.00002742,0.
 00002666,-0.00002479,-0.00007066,0.00003118,0.00000217,0.00005101,0.00
 020933,-0.00002694,0.00013405,0.00008598,0.00056188,0.00030895,-0.0001
 4376,0.00068058,-0.00002117,0.00051747,-0.00001025,-0.00002162,0.00000
 017,-0.00001761,0.00002334,-0.00000665,0.00026401,-0.00002342,-0.00017
 949,-0.00000450,0.00042154,-0.00024925,0.00000059,-0.00002706,0.000163
 05,0.00017817,-0.00029781,0.00019283,-0.00007585,0.00004900,0.00009552
 ,0.00055633,0.00002633,0.00002982,-0.04408280,0.01627918,0.57995486,-0
 .00075758,0.00037587,0.00069294,0.01066429,-0.00599698,-0.02483779,-0.
 00666823,0.00162134,-0.00682640,0.00057740,-0.00012143,0.00010119,-0.0
 0002287,0.00004810,-0.00003607,0.00001078,-0.00000507,0.00000356,0.000
 00011,-0.00000888,0.00000876,0.00002078,0.00000185,0.00001735,-0.00005
 272,-0.00006478,0.00001772,0.00000154,0.00001427,0.00002413,0.00015260
 ,0.00008672,-0.00001516,0.00005023,-0.00003073,0.00007001,-0.00000200,
 -0.00000706,-0.00000919,-0.00001352,-0.00000182,0.00000662,0.00001698,
 -0.00001419,-0.00002088,0.00002504,0.00005561,-0.00000947,-0.00001029,
 -0.00002149,0.00003970,0.00009747,-0.00010192,0.00004678,-0.00000418,0
 .00000481,0.00002456,-0.00173116,0.00021075,-0.00005559,-0.05199949,0.
 00424873,0.02940395,0.05302391,0.00008470,-0.00009857,-0.00029676,-0.0
 0284902,-0.00218861,0.00568799,0.00188839,0.00240293,0.00125506,-0.000
 00245,0.00002977,0.00011900,-0.00000301,-0.00000470,-0.00001356,0.0000
 0157,-0.00000137,0.00000541,-0.00000119,0.00000264,-0.00000276,0.00000
 855,0.00000068,0.00000106,-0.00001859,-0.00003273,-0.00004393,0.000000
 39,-0.00001763,-0.00000996,-0.00006884,-0.00002642,0.00001253,-0.00002
 290,-0.00000722,-0.00001930,0.00000183,-0.00000154,-0.00000165,-0.0000
 0158,-0.00000101,0.00000428,-0.00000582,-0.00000316,0.00000661,0.00000
 857,0.00000921,0.00001024,-0.00000221,-0.00000138,0.00000604,-0.000000
 85,0.00001384,0.00000576,-0.00000379,0.00000211,-0.00000730,0.00034584
 ,0.00024182,0.00013951,0.00370682,-0.05161804,-0.03274282,-0.00474576,
 0.04963306,0.00031196,0.00042632,0.00027696,0.00986892,-0.00341653,-0.
 01284386,-0.00602104,0.00090085,-0.00314095,0.00082109,0.00007498,0.00
 094076,-0.00002706,0.00008141,-0.00011528,0.00000955,-0.00003141,0.000
 01929,-0.00000730,-0.00001315,0.00001669,0.00001558,0.00002702,0.00000
 988,-0.00027214,-0.00027395,-0.00012653,-0.00000931,-0.00004848,0.0000
 1878,0.00019368,0.00014404,0.00004491,-0.00004584,0.00005705,0.0000037
 0,-0.00003478,0.00000803,0.00000352,-0.00002375,-0.00000909,-0.0000013
 4,-0.00002365,-0.00001675,0.00000855,0.00000755,-0.00001551,-0.0000942
 4,-0.00006020,-0.00000504,0.00002104,0.00004613,-0.00009616,0.00010556
 ,-0.00002911,0.00002130,0.00002731,0.00009901,-0.00032594,0.00112201,0
 .02423289,-0.03123335,-0.31336192,-0.02913006,0.03512362,0.33882487,-0
 .00346206,0.00297626,-0.00280498,-0.02182806,-0.01876220,0.01130023,0.
 00379681,0.00221409,0.00050141,0.00120131,0.00172293,0.00137936,0.0000
 0141,0.00006610,-0.00017040,-0.00000155,-0.00006008,0.00003278,-0.0000
 2247,-0.00000271,0.00000830,0.00003474,0.00007967,0.00000275,-0.000284
 82,-0.00039375,-0.00026948,0.00004168,-0.00010579,-0.00002210,-0.00006
 878,0.00000433,0.00007939,-0.00028314,-0.00022072,-0.00029509,0.000025
 98,-0.00000273,-0.00002613,-0.00001004,-0.00001419,0.00002555,-0.00015
 744,-0.00004184,0.00006523,-0.00024445,-0.00011610,0.00003943,-0.00008
 883,0.00002291,-0.00009246,0.00005427,-0.00002174,0.00002046,0.0000315
 3,0.00000093,-0.00003377,0.00009593,-0.00056678,-0.00029980,-0.1774223
 8,-0.12284608,0.06367411,-0.00158928,-0.00051272,0.00001201,0.19270663
 ,0.00009590,-0.00058863,-0.00000268,0.00735499,0.00391182,-0.00164239,
 -0.00051916,0.00047301,-0.00121948,0.00029630,-0.00043136,0.00016111,0
 .00001241,0.00001593,-0.00001868,0.00000070,-0.00001172,0.00000613,0.0
 0000099,-0.00000204,0.00000469,-0.00000265,0.00000431,0.00000919,-0.00
 015330,-0.00011508,-0.00010546,0.00000339,-0.00003576,-0.00001535,-0.0
 0000040,0.00000927,-0.00000304,0.00004439,0.00010300,0.00006128,-0.000
 03394,0.00000225,0.00001300,-0.00000012,-0.00000227,-0.00000769,0.0000
 1713,0.00000390,-0.00001628,0.00000761,0.00001379,-0.00003673,-0.00000
 313,-0.00000768,0.00000880,-0.00000440,-0.00000066,0.00000819,-0.00001
 073,-0.00000129,-0.00000479,0.00019945,0.00014666,0.00014016,-0.120094
 22,-0.14683469,0.05698808,0.00456896,0.00295889,-0.00150201,0.13003062
 ,0.15833700,-0.00078200,0.00131359,-0.00101681,-0.01051788,-0.01217798
 ,0.00415773,0.00031382,0.00142384,-0.00004220,0.00051182,0.00032987,0.
 00071506,-0.00001085,0.00004078,-0.00006972,0.00000500,-0.00001842,0.0
 0001605,-0.00000662,-0.00000457,0.00000537,0.00001639,0.00001090,0.000
 00441,-0.00016733,-0.00011779,-0.00011563,-0.00000338,-0.00005914,-0.0
 0000088,0.00003452,0.00003559,0.00005112,-0.00012595,-0.00013783,-0.00
 009882,0.00002457,-0.00000783,-0.00001868,-0.00001836,-0.00000554,0.00
 001685,-0.00004578,-0.00002323,0.00002549,0.00006100,0.00001959,0.0000
 5507,-0.00002625,-0.00001989,0.00001778,0.00005831,-0.00003333,0.00001
 948,0.00001091,-0.00000107,-0.00002066,0.00004719,0.00004971,0.0004459
 6,0.06339509,0.05687343,-0.07719041,0.02158733,0.02014312,-0.00816288,
 -0.06921552,-0.06345157,0.07935683,-0.00364134,-0.00096025,-0.00280315
 ,-0.01022417,0.02909399,0.00654556,0.00207677,-0.00289246,0.00204524,-
 0.00005269,-0.00097306,0.00105146,-0.00002688,0.00006373,-0.00020557,0
 .00000103,-0.00006186,0.00003947,-0.00000849,-0.00000840,0.00001797,0.
 00002746,0.00006516,0.00003257,-0.00064662,-0.00043383,-0.00033239,-0.
 00001237,-0.00018176,-0.00004596,0.00001274,0.00007436,0.00007986,-0.0
 0009415,0.00039080,-0.00001686,-0.00011845,0.00002805,0.00005201,0.000
 02888,-0.00001656,-0.00002861,-0.00006857,0.00004074,0.00002437,0.0000
 3723,-0.00014416,-0.00001174,-0.00000519,0.00000325,-0.00007613,-0.000
 02388,0.00001944,-0.00002998,-0.00004399,0.00000884,-0.00000254,0.0000
 2751,0.00041890,0.00011164,-0.06469229,0.07853752,0.01408882,-0.001789
 80,0.00219208,0.00006586,0.00747302,-0.02181079,-0.00514600,0.07176424
 ,0.00157044,-0.00015234,0.00113648,0.00002967,-0.00475730,-0.00281908,
 -0.00045099,0.00177292,0.00065128,-0.00066603,0.00004364,-0.00065799,0
 .00008345,-0.00004281,0.00017292,-0.00000933,0.00003032,-0.00003636,0.
 00002228,0.00000305,0.00000019,-0.00004453,-0.00004001,-0.00001009,0.0
 0036254,0.00031989,0.00016782,0.00000922,0.00009307,0.00000577,-0.0000
 1851,-0.00004557,-0.00005470,0.00005356,-0.00008048,0.00005100,0.00003
 710,-0.00001081,-0.00000930,-0.00000371,0.00000627,0.00001093,0.000053
 27,0.00000069,-0.00001444,0.00001469,0.00006511,0.00002277,0.00001512,
 -0.00000237,0.00005947,0.00001732,-0.00000687,0.00002093,0.00002027,-0
 .00000545,0.00000088,-0.00007235,-0.00000139,0.00004315,0.07599757,-0.
 28004784,-0.04915756,-0.00011690,-0.00129258,0.00012274,0.00654959,-0.
 01794865,-0.00418223,-0.08345374,0.30209952,-0.00068791,-0.00049802,-0
 .00032413,-0.00223727,0.01586708,0.00185918,-0.00053605,-0.00130727,0.
 00033472,-0.00010823,-0.00019472,0.00036935,-0.00001125,0.00001547,-0.
 00003952,0.00000008,-0.00001071,0.00000258,-0.00000377,-0.00000401,0.0
 0000321,0.00000907,0.00002830,0.00000231,-0.00009896,-0.00007097,-0.00
 000839,-0.00001953,-0.00002498,0.00000216,0.00007459,0.00004871,0.0000
 2566,-0.00002575,0.00017234,0.00001926,-0.00004410,0.00001441,0.000020
 19,0.00000684,-0.00000426,-0.00001784,-0.00001363,0.00002102,0.0000087
 5,-0.00006223,-0.00012304,-0.00006074,-0.00001875,0.00001323,-0.000024
 27,0.00001938,-0.00001453,0.00002401,-0.00000219,-0.00000241,0.0000229
 7,-0.00026412,-0.00021731,0.00016895,0.01449492,-0.04942706,-0.0572997
 4,0.00889602,-0.02938218,-0.00359685,-0.00391128,0.01062549,0.00184948
 ,-0.01545590,0.05447541,0.05665868\\-0.00000142,0.00000203,0.00000327,
 -0.00000455,-0.00000212,-0.00000021,-0.00000097,-0.00000246,0.00000233
 ,0.00000523,0.00000182,0.00000273,0.00000071,0.00000234,-0.00000184,-0
 .00000474,0.00000264,-0.00000280,-0.00000361,0.00000306,-0.00000204,-0
 .00000821,-0.00000632,-0.00000235,0.00000726,0.00000353,-0.00000204,-0
 .00000356,0.00000309,0.00000370,-0.00000733,0.00000373,-0.00000468,0.0
 0000063,0.00000517,-0.00000022,0.00000379,0.00000115,0.00000259,0.0000
 0101,0.00000064,0.00000073,0.00000145,0.00000428,0.00000199,0.00000465
 ,0.00000150,0.00000006,0.00000154,0.00000495,0.00000193,0.00000117,0.0
 0000229,0.00000207,0.00000364,0.00000193,0.00000337,0.00000211,-0.0000
 0405,0.00000010,0.,-0.00001035,-0.00000335,-0.00000197,-0.00000576,-0.
 00000256,0.00000194,-0.00000697,-0.00000068,0.00000124,-0.00000612,-0.
 00000210\\\@


 A MAN THINKING OR WORKING IS ALWAYS ALONE, 
 LET HIM BE WHERE HE WILL.

                                    -- THOREAU
 Job cpu time:       0 days  3 hours 35 minutes 53.0 seconds.
 Elapsed time:       0 days  0 hours 13 minutes 36.8 seconds.
 File lengths (MBytes):  RWF=    380 Int=      0 D2E=      0 Chk=     22 Scr=      1
 Normal termination of Gaussian 16 at Sat Feb 13 23:34:27 2021.
