 Entering Gaussian System, Link 0=g16
 Initial command:
 /apps/gaussian/16/A.03/g16/l1.exe "/beegfs/scratch/user/q/tla25/Gau-799.inp" -scrdir="/beegfs/scratch/user/q/tla25/"
 Entering Link 1 = /apps/gaussian/16/A.03/g16/l1.exe PID=       800.
  
 Copyright (c) 1988,1990,1992,1993,1995,1998,2003,2009,2016,
            Gaussian, Inc.  All Rights Reserved.
  
 This is part of the Gaussian(R) 16 program.  It is based on
 the Gaussian(R) 09 system (copyright 2009, Gaussian, Inc.),
 the Gaussian(R) 03 system (copyright 2003, Gaussian, Inc.),
 the Gaussian(R) 98 system (copyright 1998, Gaussian, Inc.),
 the Gaussian(R) 94 system (copyright 1995, Gaussian, Inc.),
 the Gaussian 92(TM) system (copyright 1992, Gaussian, Inc.),
 the Gaussian 90(TM) system (copyright 1990, Gaussian, Inc.),
 the Gaussian 88(TM) system (copyright 1988, Gaussian, Inc.),
 the Gaussian 86(TM) system (copyright 1986, Carnegie Mellon
 University), and the Gaussian 82(TM) system (copyright 1983,
 Carnegie Mellon University). Gaussian is a federally registered
 trademark of Gaussian, Inc.
  
 This software contains proprietary and confidential information,
 including trade secrets, belonging to Gaussian, Inc.
  
 This software is provided under written license and may be
 used, copied, transmitted, or stored only in accord with that
 written license.
  
 The following legend is applicable only to US Government
 contracts under FAR:
  
                    RESTRICTED RIGHTS LEGEND
  
 Use, reproduction and disclosure by the US Government is
 subject to restrictions as set forth in subparagraphs (a)
 and (c) of the Commercial Computer Software - Restricted
 Rights clause in FAR 52.227-19.
  
 Gaussian, Inc.
 340 Quinnipiac St., Bldg. 40, Wallingford CT 06492
  
  
 ---------------------------------------------------------------
 Warning -- This program may not be used in any manner that
 competes with the business of Gaussian, Inc. or will provide
 assistance to any competitor of Gaussian, Inc.  The licensee
 of this program is prohibited from giving any competitor of
 Gaussian, Inc. access to this program.  By using this program,
 the user acknowledges that Gaussian, Inc. is engaged in the
 business of creating and licensing software in the field of
 computational chemistry and represents and warrants to the
 licensee that it is not a competitor of Gaussian, Inc. and that
 it will not use this program in any manner prohibited above.
 ---------------------------------------------------------------
  

 Cite this work as:
 Gaussian 16, Revision A.03,
 M. J. Frisch, G. W. Trucks, H. B. Schlegel, G. E. Scuseria, 
 M. A. Robb, J. R. Cheeseman, G. Scalmani, V. Barone, 
 G. A. Petersson, H. Nakatsuji, X. Li, M. Caricato, A. V. Marenich, 
 J. Bloino, B. G. Janesko, R. Gomperts, B. Mennucci, H. P. Hratchian, 
 J. V. Ortiz, A. F. Izmaylov, J. L. Sonnenberg, D. Williams-Young, 
 F. Ding, F. Lipparini, F. Egidi, J. Goings, B. Peng, A. Petrone, 
 T. Henderson, D. Ranasinghe, V. G. Zakrzewski, J. Gao, N. Rega, 
 G. Zheng, W. Liang, M. Hada, M. Ehara, K. Toyota, R. Fukuda, 
 J. Hasegawa, M. Ishida, T. Nakajima, Y. Honda, O. Kitao, H. Nakai, 
 T. Vreven, K. Throssell, J. A. Montgomery, Jr., J. E. Peralta, 
 F. Ogliaro, M. J. Bearpark, J. J. Heyd, E. N. Brothers, K. N. Kudin, 
 V. N. Staroverov, T. A. Keith, R. Kobayashi, J. Normand, 
 K. Raghavachari, A. P. Rendell, J. C. Burant, S. S. Iyengar, 
 J. Tomasi, M. Cossi, J. M. Millam, M. Klene, C. Adamo, R. Cammi, 
 J. W. Ochterski, R. L. Martin, K. Morokuma, O. Farkas, 
 J. B. Foresman, and D. J. Fox, Gaussian, Inc., Wallingford CT, 2016.
 
 ******************************************
 Gaussian 16:  ES64L-G16RevA.03 25-Dec-2016
                13-Feb-2021 
 ******************************************
 %nprocshared=16
 Will use up to   16 processors via shared memory.
 %mem=48GB
 ----------------------------------------------------------------------
 # wB97XD def2tzvp, opt=(ts, noeigen, calcfc, maxcycles=70, maxstep=8),
  freq=noraman, scrf=(iefpcm, solvent=water)
 ----------------------------------------------------------------------
 1/5=1,6=70,8=8,10=4,11=1,18=20,26=3,38=1/1,3;
 2/9=110,12=2,17=6,18=5,40=1/2;
 3/5=44,7=101,11=2,25=1,30=1,70=2201,71=2,72=1,74=-58,140=1/1,2,3;
 4//1;
 5/5=2,38=5,53=1/2;
 8/6=4,10=90,11=11/1;
 11/6=1,8=1,9=11,15=111,16=1/1,2,10;
 10/6=1,13=1/2;
 6/7=2,8=2,9=2,10=2,28=1/1;
 7/10=1,18=20,25=1/1,2,3,16;
 1/5=1,6=70,8=8,10=4,11=1,18=20,26=3/3(2);
 2/9=110/2;
 99//99;
 2/9=110/2;
 3/5=44,7=101,11=2,25=1,30=1,70=2205,71=1,72=1,74=-58/1,2,3;
 4/5=5,16=3,69=1/1;
 5/5=2,38=5,53=1/2;
 7//1,2,3,16;
 1/5=1,6=70,8=8,11=1,18=20,26=3/3(-5);
 2/9=110/2;
 6/7=2,8=2,9=2,10=2,19=2,28=1/1;
 99/9=1/99;
 ------------------------
 1_iteration/TS-478-1.out
 ------------------------
 Symbolic Z-matrix:
 Charge =  0 Multiplicity = 1
 C                    -0.1379    0.73383   0.28289 
 C                     1.18557   0.52844  -0.25753 
 O                     1.69542   1.25086  -1.12637 
 C                    -1.04232  -0.30665   0.56335 
 C                    -2.16814  -2.39058  -0.94329 
 H                    -2.46915  -2.7435   -1.92918 
 H                    -1.35031  -3.00816  -0.57617 
 H                    -3.01253  -2.47562  -0.26343 
 N                    -1.72151  -0.99589  -0.99234 
 H                    -0.95298  -0.88293  -1.64394 
 H                    -2.46668  -0.3784   -1.29741 
 C                    -2.30034  -0.05647   1.35476 
 H                    -2.01937   0.22113   2.37158 
 H                    -2.88484   0.76004   0.93315 
 H                    -2.92417  -0.94742   1.41205 
 H                    -0.54682  -1.22614   0.85733 
 Cl                   -0.84595   2.31634  -0.09823 
 N                     1.8959   -0.56043   0.21483 
 C                     1.79947  -1.07004   1.56659 
 C                     3.10031  -0.94548  -0.4862 
 H                     1.1183   -0.45877   2.15342 
 H                     1.45498  -2.10914   1.59003 
 H                     2.78493  -1.03458   2.0416 
 H                     2.9939   -0.7472   -1.54932 
 H                     3.98161  -0.40428  -0.12104 
 H                     3.27034  -2.01367  -0.3388 
 
 Add virtual bond connecting atoms N9         and C4         Dist= 3.46D+00.

 GradGradGradGradGradGradGradGradGradGradGradGradGradGradGradGradGradGrad
 Berny optimization.
 Initialization pass.
                           ----------------------------
                           !    Initial Parameters    !
                           ! (Angstroms and Degrees)  !
 --------------------------                            --------------------------
 ! Name  Definition              Value          Derivative Info.                !
 --------------------------------------------------------------------------------
 ! R1    R(1,2)                  1.4442         calculate D2E/DX2 analytically  !
 ! R2    R(1,4)                  1.4069         calculate D2E/DX2 analytically  !
 ! R3    R(1,17)                 1.7751         calculate D2E/DX2 analytically  !
 ! R4    R(2,3)                  1.2396         calculate D2E/DX2 analytically  !
 ! R5    R(2,18)                 1.3832         calculate D2E/DX2 analytically  !
 ! R6    R(4,9)                  1.8321         calculate D2E/DX2 analytically  !
 ! R7    R(4,12)                 1.5072         calculate D2E/DX2 analytically  !
 ! R8    R(4,16)                 1.0851         calculate D2E/DX2 analytically  !
 ! R9    R(5,6)                  1.0896         calculate D2E/DX2 analytically  !
 ! R10   R(5,7)                  1.0886         calculate D2E/DX2 analytically  !
 ! R11   R(5,8)                  1.0874         calculate D2E/DX2 analytically  !
 ! R12   R(5,9)                  1.4653         calculate D2E/DX2 analytically  !
 ! R13   R(9,10)                 1.0139         calculate D2E/DX2 analytically  !
 ! R14   R(9,11)                 1.0147         calculate D2E/DX2 analytically  !
 ! R15   R(12,13)                1.0908         calculate D2E/DX2 analytically  !
 ! R16   R(12,14)                1.0891         calculate D2E/DX2 analytically  !
 ! R17   R(12,15)                1.0891         calculate D2E/DX2 analytically  !
 ! R18   R(18,19)                1.4478         calculate D2E/DX2 analytically  !
 ! R19   R(18,20)                1.4458         calculate D2E/DX2 analytically  !
 ! R20   R(19,21)                1.0872         calculate D2E/DX2 analytically  !
 ! R21   R(19,22)                1.095          calculate D2E/DX2 analytically  !
 ! R22   R(19,23)                1.0945         calculate D2E/DX2 analytically  !
 ! R23   R(20,24)                1.0867         calculate D2E/DX2 analytically  !
 ! R24   R(20,25)                1.0968         calculate D2E/DX2 analytically  !
 ! R25   R(20,26)                1.0916         calculate D2E/DX2 analytically  !
 ! A1    A(2,1,4)              123.9542         calculate D2E/DX2 analytically  !
 ! A2    A(2,1,17)             114.3288         calculate D2E/DX2 analytically  !
 ! A3    A(4,1,17)             116.4693         calculate D2E/DX2 analytically  !
 ! A4    A(1,2,3)              123.799          calculate D2E/DX2 analytically  !
 ! A5    A(1,2,18)             117.0492         calculate D2E/DX2 analytically  !
 ! A6    A(3,2,18)             119.1359         calculate D2E/DX2 analytically  !
 ! A7    A(1,4,9)              110.3211         calculate D2E/DX2 analytically  !
 ! A8    A(1,4,12)             121.2326         calculate D2E/DX2 analytically  !
 ! A9    A(1,4,16)             112.7779         calculate D2E/DX2 analytically  !
 ! A10   A(9,4,12)             101.4722         calculate D2E/DX2 analytically  !
 ! A11   A(9,4,16)              94.6202         calculate D2E/DX2 analytically  !
 ! A12   A(12,4,16)            112.3063         calculate D2E/DX2 analytically  !
 ! A13   A(6,5,7)              109.2049         calculate D2E/DX2 analytically  !
 ! A14   A(6,5,8)              109.0182         calculate D2E/DX2 analytically  !
 ! A15   A(6,5,9)              111.2369         calculate D2E/DX2 analytically  !
 ! A16   A(7,5,8)              109.1574         calculate D2E/DX2 analytically  !
 ! A17   A(7,5,9)              108.8011         calculate D2E/DX2 analytically  !
 ! A18   A(8,5,9)              109.3937         calculate D2E/DX2 analytically  !
 ! A19   A(4,9,5)              116.2735         calculate D2E/DX2 analytically  !
 ! A20   A(4,9,10)             102.8734         calculate D2E/DX2 analytically  !
 ! A21   A(4,9,11)             107.3735         calculate D2E/DX2 analytically  !
 ! A22   A(5,9,10)             111.0144         calculate D2E/DX2 analytically  !
 ! A23   A(5,9,11)             111.4349         calculate D2E/DX2 analytically  !
 ! A24   A(10,9,11)            107.1955         calculate D2E/DX2 analytically  !
 ! A25   A(4,12,13)            108.4645         calculate D2E/DX2 analytically  !
 ! A26   A(4,12,14)            111.663          calculate D2E/DX2 analytically  !
 ! A27   A(4,12,15)            111.7108         calculate D2E/DX2 analytically  !
 ! A28   A(13,12,14)           107.957          calculate D2E/DX2 analytically  !
 ! A29   A(13,12,15)           107.8588         calculate D2E/DX2 analytically  !
 ! A30   A(14,12,15)           109.0418         calculate D2E/DX2 analytically  !
 ! A31   A(2,18,19)            124.1734         calculate D2E/DX2 analytically  !
 ! A32   A(2,18,20)            118.1552         calculate D2E/DX2 analytically  !
 ! A33   A(19,18,20)           114.4841         calculate D2E/DX2 analytically  !
 ! A34   A(18,19,21)           110.3511         calculate D2E/DX2 analytically  !
 ! A35   A(18,19,22)           112.0219         calculate D2E/DX2 analytically  !
 ! A36   A(18,19,23)           109.5003         calculate D2E/DX2 analytically  !
 ! A37   A(21,19,22)           108.9586         calculate D2E/DX2 analytically  !
 ! A38   A(21,19,23)           108.1576         calculate D2E/DX2 analytically  !
 ! A39   A(22,19,23)           107.7408         calculate D2E/DX2 analytically  !
 ! A40   A(18,20,24)           110.1328         calculate D2E/DX2 analytically  !
 ! A41   A(18,20,25)           112.1189         calculate D2E/DX2 analytically  !
 ! A42   A(18,20,26)           108.9587         calculate D2E/DX2 analytically  !
 ! A43   A(24,20,25)           108.3227         calculate D2E/DX2 analytically  !
 ! A44   A(24,20,26)           109.02           calculate D2E/DX2 analytically  !
 ! A45   A(25,20,26)           108.2241         calculate D2E/DX2 analytically  !
 ! D1    D(4,1,2,3)            139.5359         calculate D2E/DX2 analytically  !
 ! D2    D(4,1,2,18)           -38.9982         calculate D2E/DX2 analytically  !
 ! D3    D(17,1,2,3)           -13.8634         calculate D2E/DX2 analytically  !
 ! D4    D(17,1,2,18)          167.6025         calculate D2E/DX2 analytically  !
 ! D5    D(2,1,4,9)            -73.1491         calculate D2E/DX2 analytically  !
 ! D6    D(2,1,4,12)           168.6472         calculate D2E/DX2 analytically  !
 ! D7    D(2,1,4,16)            31.2495         calculate D2E/DX2 analytically  !
 ! D8    D(17,1,4,9)            79.7355         calculate D2E/DX2 analytically  !
 ! D9    D(17,1,4,12)          -38.4682         calculate D2E/DX2 analytically  !
 ! D10   D(17,1,4,16)         -175.8659         calculate D2E/DX2 analytically  !
 ! D11   D(1,2,18,19)          -33.3124         calculate D2E/DX2 analytically  !
 ! D12   D(1,2,18,20)          168.016          calculate D2E/DX2 analytically  !
 ! D13   D(3,2,18,19)          148.0822         calculate D2E/DX2 analytically  !
 ! D14   D(3,2,18,20)          -10.5894         calculate D2E/DX2 analytically  !
 ! D15   D(1,4,9,5)            153.5483         calculate D2E/DX2 analytically  !
 ! D16   D(1,4,9,10)            32.0112         calculate D2E/DX2 analytically  !
 ! D17   D(1,4,9,11)           -80.897          calculate D2E/DX2 analytically  !
 ! D18   D(12,4,9,5)           -76.708          calculate D2E/DX2 analytically  !
 ! D19   D(12,4,9,10)          161.755          calculate D2E/DX2 analytically  !
 ! D20   D(12,4,9,11)           48.8468         calculate D2E/DX2 analytically  !
 ! D21   D(16,4,9,5)            37.1806         calculate D2E/DX2 analytically  !
 ! D22   D(16,4,9,10)          -84.3564         calculate D2E/DX2 analytically  !
 ! D23   D(16,4,9,11)          162.7354         calculate D2E/DX2 analytically  !
 ! D24   D(1,4,12,13)          -65.8214         calculate D2E/DX2 analytically  !
 ! D25   D(1,4,12,14)           53.0186         calculate D2E/DX2 analytically  !
 ! D26   D(1,4,12,15)          175.4309         calculate D2E/DX2 analytically  !
 ! D27   D(9,4,12,13)          171.6657         calculate D2E/DX2 analytically  !
 ! D28   D(9,4,12,14)          -69.4943         calculate D2E/DX2 analytically  !
 ! D29   D(9,4,12,15)           52.9181         calculate D2E/DX2 analytically  !
 ! D30   D(16,4,12,13)          71.7557         calculate D2E/DX2 analytically  !
 ! D31   D(16,4,12,14)        -169.4043         calculate D2E/DX2 analytically  !
 ! D32   D(16,4,12,15)         -46.992          calculate D2E/DX2 analytically  !
 ! D33   D(6,5,9,4)           -174.7405         calculate D2E/DX2 analytically  !
 ! D34   D(6,5,9,10)           -57.6236         calculate D2E/DX2 analytically  !
 ! D35   D(6,5,9,11)            61.7858         calculate D2E/DX2 analytically  !
 ! D36   D(7,5,9,4)            -54.4018         calculate D2E/DX2 analytically  !
 ! D37   D(7,5,9,10)            62.715          calculate D2E/DX2 analytically  !
 ! D38   D(7,5,9,11)          -177.8756         calculate D2E/DX2 analytically  !
 ! D39   D(8,5,9,4)             64.7656         calculate D2E/DX2 analytically  !
 ! D40   D(8,5,9,10)          -178.1175         calculate D2E/DX2 analytically  !
 ! D41   D(8,5,9,11)           -58.7081         calculate D2E/DX2 analytically  !
 ! D42   D(2,18,19,21)          -1.7028         calculate D2E/DX2 analytically  !
 ! D43   D(2,18,19,22)         119.8855         calculate D2E/DX2 analytically  !
 ! D44   D(2,18,19,23)        -120.6472         calculate D2E/DX2 analytically  !
 ! D45   D(20,18,19,21)        157.6653         calculate D2E/DX2 analytically  !
 ! D46   D(20,18,19,22)        -80.7463         calculate D2E/DX2 analytically  !
 ! D47   D(20,18,19,23)         38.721          calculate D2E/DX2 analytically  !
 ! D48   D(2,18,20,24)         -33.4834         calculate D2E/DX2 analytically  !
 ! D49   D(2,18,20,25)          87.2089         calculate D2E/DX2 analytically  !
 ! D50   D(2,18,20,26)        -153.0182         calculate D2E/DX2 analytically  !
 ! D51   D(19,18,20,24)        165.8247         calculate D2E/DX2 analytically  !
 ! D52   D(19,18,20,25)        -73.483          calculate D2E/DX2 analytically  !
 ! D53   D(19,18,20,26)         46.2899         calculate D2E/DX2 analytically  !
 --------------------------------------------------------------------------------
 Trust Radius=8.00D-02 FncErr=1.00D-07 GrdErr=1.00D-06 EigMax=2.50D+02 EigMin=1.00D-04
 Number of steps in this run=     70 maximum allowed number of steps=    156.
 Search for a saddle point of order  1.
 GradGradGradGradGradGradGradGradGradGradGradGradGradGradGradGradGradGrad

                          Input orientation:                          
 ---------------------------------------------------------------------
 Center     Atomic      Atomic             Coordinates (Angstroms)
 Number     Number       Type             X           Y           Z
 ---------------------------------------------------------------------
      1          6           0       -0.137900    0.733830    0.282890
      2          6           0        1.185570    0.528440   -0.257530
      3          8           0        1.695420    1.250860   -1.126370
      4          6           0       -1.042320   -0.306650    0.563350
      5          6           0       -2.168140   -2.390580   -0.943290
      6          1           0       -2.469150   -2.743500   -1.929180
      7          1           0       -1.350310   -3.008160   -0.576170
      8          1           0       -3.012530   -2.475620   -0.263430
      9          7           0       -1.721510   -0.995890   -0.992340
     10          1           0       -0.952980   -0.882930   -1.643940
     11          1           0       -2.466680   -0.378400   -1.297410
     12          6           0       -2.300340   -0.056470    1.354760
     13          1           0       -2.019370    0.221130    2.371580
     14          1           0       -2.884840    0.760040    0.933150
     15          1           0       -2.924170   -0.947420    1.412050
     16          1           0       -0.546820   -1.226140    0.857330
     17         17           0       -0.845950    2.316340   -0.098230
     18          7           0        1.895900   -0.560430    0.214830
     19          6           0        1.799470   -1.070040    1.566590
     20          6           0        3.100310   -0.945480   -0.486200
     21          1           0        1.118300   -0.458770    2.153420
     22          1           0        1.454980   -2.109140    1.590030
     23          1           0        2.784930   -1.034580    2.041600
     24          1           0        2.993900   -0.747200   -1.549320
     25          1           0        3.981610   -0.404280   -0.121040
     26          1           0        3.270340   -2.013670   -0.338800
 ---------------------------------------------------------------------
                    Distance matrix (angstroms):
                    1          2          3          4          5
     1  C    0.000000
     2  C    1.444234   0.000000
     3  O    2.369472   1.239645   0.000000
     4  C    1.406852   2.516886   3.574383   0.000000
     5  C    3.922669   4.498702   5.312316   2.807169   0.000000
     6  H    4.734956   5.182372   5.826067   3.766535   1.089559
     7  H    4.026215   4.363457   5.264831   2.948138   1.088590
     8  H    4.343102   5.162214   6.065980   3.044622   1.087399
     9  N    2.669450   3.363724   4.091609   1.832081   1.465280
    10  H    2.644039   2.913330   3.440198   2.283026   2.059255
    11  H    3.026156   3.904182   4.472898   2.344435   2.064799
    12  C    2.539611   3.884993   4.881723   1.507161   3.278198
    13  H    2.857519   4.156717   5.205349   2.121998   4.222739
    14  H    2.822978   4.247304   5.045920   2.160893   3.736455
    15  H    3.444547   4.675000   5.711096   2.161536   2.863899
    16  H    2.082950   2.706037   3.885645   1.085084   2.688277
    17  Cl   1.775085   2.710911   2.941238   2.712255   4.961593
    18  N    2.411656   1.383232   2.262693   2.969681   4.605118
    19  C    2.941978   2.501884   3.556605   3.108862   4.877013
    20  C    3.727947   2.427130   2.684668   4.321000   5.482136
    21  H    2.549356   2.606106   3.743384   2.686958   4.911435
    22  H    3.511176   3.231546   4.327383   3.246467   4.429889
    23  H    3.842300   3.207333   4.055404   4.166887   5.939799
    24  H    3.919007   2.562428   2.420161   4.576956   5.451112
    25  H    4.292880   2.950667   2.996138   5.071271   6.514669
    26  H    4.421691   3.288646   3.709150   4.725127   5.484937
                    6          7          8          9         10
     6  H    0.000000
     7  H    1.775524   0.000000
     8  H    1.772497   1.773240   0.000000
     9  N    2.119145   2.088113   2.094670   0.000000
    10  H    2.416993   2.411350   2.946899   1.013894   0.000000
    11  H    2.448027   2.946541   2.401124   1.014712   1.632765
    12  C    4.246515   3.652879   2.996338   2.593537   3.389781
    13  H    5.242888   4.423255   3.898988   3.589682   4.298900
    14  H    4.543184   4.339604   3.452188   2.853794   3.615636
    15  H    3.820571   3.267523   2.269457   2.688835   3.637145
    16  H    3.709767   2.424070   2.982789   2.203223   2.557168
    17  Cl   5.620421   5.369647   5.261582   3.540749   3.554716
    18  N    5.330688   4.141853   5.290498   3.838299   3.416892
    19  C    5.765587   4.274207   5.336663   4.353266   4.233024
    20  C    6.027765   4.906196   6.305376   4.848574   4.215855
    21  H    5.895542   4.477062   5.193516   4.271864   4.346269
    22  H    5.309053   3.656544   4.850595   4.242411   4.214312
    23  H    6.803886   5.277115   6.403148   5.432706   5.251493
    24  H    5.828758   4.993107   6.381078   4.754699   3.950346
    25  H    7.096029   5.951194   7.295801   5.799547   5.186377
    26  H    6.000309   4.732416   6.300280   5.136298   4.562718
                   11         12         13         14         15
    11  H    0.000000
    12  C    2.676810   0.000000
    13  H    3.744464   1.090839   0.000000
    14  H    2.538957   1.089075   1.763106   0.000000
    15  H    2.806110   1.089145   1.762064   1.773785   0.000000
    16  H    3.007895   2.165732   2.560458   3.068713   2.457070
    17  Cl   3.365475   3.139531   3.444819   2.764577   4.153562
    18  N    4.620834   4.377425   4.537813   5.011497   4.981583
    19  C    5.184679   4.228550   4.110799   5.068846   4.727758
    20  C    5.654292   5.774642   5.978211   6.383210   6.316464
    21  H    4.976622   3.533667   3.217892   4.358863   4.138837
    22  H    5.168383   4.286168   4.255830   5.243827   4.534118
    23  H    6.257713   5.223832   4.976645   6.049431   5.744367
    24  H    5.478814   6.077809   6.437701   6.556982   6.620676
    25  H    6.554766   6.462341   6.528097   7.043798   7.094728
    26  H    6.042056   6.142577   6.349923   6.870048   6.524900
                   16         17         18         19         20
    16  H    0.000000
    17  Cl   3.681269   0.000000
    18  N    2.612060   3.986421   0.000000
    19  C    2.456114   4.608410   1.447845   0.000000
    20  C    3.896845   5.134487   1.445790   2.433443   0.000000
    21  H    2.245291   4.077921   2.091202   1.087204   3.336592
    22  H    2.307323   5.265869   2.117567   1.094966   2.893432
    23  H    3.541151   5.384313   2.086212   1.094543   2.548956
    24  H    4.307905   5.122049   2.086315   3.352579   1.086675
    25  H    4.705246   5.541446   2.118343   2.837793   1.096781
    26  H    4.076965   5.979189   2.075451   2.585422   1.091635
                   21         22         23         24         25
    21  H    0.000000
    22  H    1.776086   0.000000
    23  H    1.766838   1.768435   0.000000
    24  H    4.160691   3.752156   3.608457   0.000000
    25  H    3.657141   3.495450   2.550751   1.770070   0.000000
    26  H    3.641449   2.650478   2.619264   1.773619   1.772981
                   26
    26  H    0.000000
 Stoichiometry    C7H15ClN2O
 Framework group  C1[X(C7H15ClN2O)]
 Deg. of freedom    72
 Full point group                 C1      NOp   1
 Largest Abelian subgroup         C1      NOp   1
 Largest concise Abelian subgroup C1      NOp   1
                         Standard orientation:                         
 ---------------------------------------------------------------------
 Center     Atomic      Atomic             Coordinates (Angstroms)
 Number     Number       Type             X           Y           Z
 ---------------------------------------------------------------------
      1          6           0       -0.137901    0.733829    0.282892
      2          6           0        1.185569    0.528439   -0.257528
      3          8           0        1.695419    1.250860   -1.126368
      4          6           0       -1.042320   -0.306651    0.563352
      5          6           0       -2.168140   -2.390581   -0.943288
      6          1           0       -2.469150   -2.743501   -1.929178
      7          1           0       -1.350310   -3.008161   -0.576168
      8          1           0       -3.012530   -2.475622   -0.263428
      9          7           0       -1.721510   -0.995891   -0.992338
     10          1           0       -0.952980   -0.882931   -1.643938
     11          1           0       -2.466680   -0.378401   -1.297408
     12          6           0       -2.300341   -0.056471    1.354762
     13          1           0       -2.019371    0.221129    2.371582
     14          1           0       -2.884841    0.760038    0.933152
     15          1           0       -2.924170   -0.947422    1.412052
     16          1           0       -0.546820   -1.226141    0.857332
     17         17           0       -0.845951    2.316339   -0.098228
     18          7           0        1.895900   -0.560430    0.214832
     19          6           0        1.799470   -1.070040    1.566592
     20          6           0        3.100310   -0.945480   -0.486198
     21          1           0        1.118300   -0.458771    2.153422
     22          1           0        1.454980   -2.109140    1.590032
     23          1           0        2.784930   -1.034580    2.041602
     24          1           0        2.993900   -0.747200   -1.549318
     25          1           0        3.981610   -0.404280   -0.121038
     26          1           0        3.270340   -2.013670   -0.338798
 ---------------------------------------------------------------------
 Rotational constants (GHZ):           0.9959426           0.7249094           0.5434245
 Standard basis: def2TZVP (5D, 7F)
 There are   492 symmetry adapted cartesian basis functions of A   symmetry.
 There are   437 symmetry adapted basis functions of A   symmetry.
   437 basis functions,   699 primitive gaussians,   492 cartesian basis functions
    48 alpha electrons       48 beta electrons
       nuclear repulsion energy       769.7643484281 Hartrees.
 NAtoms=   26 NActive=   26 NUniq=   26 SFac= 1.00D+00 NAtFMM=   60 NAOKFM=F Big=F
 Integral buffers will be    131072 words long.
 Raffenetti 2 integral format.
 Two-electron integral symmetry is turned on.
 Nuclear repulsion after empirical dispersion term =      769.7457654220 Hartrees.
 Force inversion solution in PCM.
 ------------------------------------------------------------------------------
 Polarizable Continuum Model (PCM)
 =================================
 Model                : PCM.
 Atomic radii         : UFF (Universal Force Field).
 Polarization charges : Total charges.
 Charge compensation  : None.
 Solution method      : Matrix inversion.
 Cavity type          : Scaled VdW (van der Waals Surface) (Alpha=1.100).
 Cavity algorithm     : GePol (No added spheres)
                        Default sphere list used, NSphG=   26.
                        Lebedev-Laikov grids with approx.  5.0 points / Ang**2.
                        Smoothing algorithm: York/Karplus (Gamma=1.0000).
                        Polarization charges: spherical gaussians, with
                                              point-specific exponents (IZeta= 3).
                        Self-potential: point-specific (ISelfS= 7).
                        Self-field    : sphere-specific E.n sum rule (ISelfD= 2).
 1st derivatives      : Analytical E(r).r(x)/FMM algorithm (CHGder, D1EAlg=3).
                        Cavity 1st derivative terms included.
 2nd derivatives      : Analytical E(r).r(xy)/FMM algorithm (CHGder, D2EAlg=3).
                        Cavity 2nd derivative terms included.
 Solvent              : Water, Eps=  78.355300 Eps(inf)=   1.777849
 ------------------------------------------------------------------------------
 One-electron integrals computed using PRISM.
   1 Symmetry operations used in ECPInt.
 ECPInt:  NShTT=   16836 NPrTT=   50704 LenC2=   16033 LenP2D=   36523.
 LDataN:  DoStor=T MaxTD1= 6 Len=  172
 NBasis=   437 RedAO= T EigKep=  9.22D-05  NBF=   437
 NBsUse=   437 1.00D-06 EigRej= -1.00D+00 NBFU=   437
 ExpMin= 9.52D-02 ExpMax= 6.95D+04 ExpMxC= 2.37D+03 IAcc=3 IRadAn=         5 AccDes= 0.00D+00
 Harris functional with IExCor= 4639 and IRadAn=       5 diagonalized for initial guess.
 HarFok:  IExCor= 4639 AccDes= 0.00D+00 IRadAn=         5 IDoV= 1 UseB2=F ITyADJ=14
 ICtDFT=  3500011 ScaDFX=  1.000000  1.000000  1.000000  1.000000
 FoFCou: FMM=F IPFlag=           0 FMFlag=      100000 FMFlg1=           0
         NFxFlg=           0 DoJE=T BraDBF=F KetDBF=T FulRan=T
         wScrn=  0.000000 ICntrl=       500 IOpCl=  0 I1Cent=   200000004 NGrid=           0
         NMat0=    1 NMatS0=      1 NMatT0=    0 NMatD0=    1 NMtDS0=    0 NMtDT0=    0
 Petite list used in FoFCou.
 Requested convergence on RMS density matrix=1.00D-08 within 128 cycles.
 Requested convergence on MAX density matrix=1.00D-06.
 Requested convergence on             energy=1.00D-06.
 No special actions if energy rises.
 Inv3:  Mode=1 IEnd=    10704963.
 Iteration    1 A*A^-1 deviation from unit magnitude is 4.22D-15 for   1877.
 Iteration    1 A*A^-1 deviation from orthogonality  is 2.08D-15 for   1873   1775.
 Iteration    1 A^-1*A deviation from unit magnitude is 4.00D-15 for   1865.
 Iteration    1 A^-1*A deviation from orthogonality  is 1.88D-15 for   1873   1759.
 Error on total polarization charges =  0.01351
 SCF Done:  E(RwB97XD) =  -920.708266051     A.U. after   14 cycles
            NFock= 14  Conv=0.88D-08     -V/T= 2.0032
 DoSCS=F DFT=T ScalE2(SS,OS)=  1.000000  1.000000
 Range of M.O.s used for correlation:     1   437
 NBasis=   437 NAE=    48 NBE=    48 NFC=     0 NFV=     0
 NROrb=    437 NOA=    48 NOB=    48 NVA=   389 NVB=   389

 **** Warning!!: The largest alpha MO coefficient is  0.20056208D+02

   1 Symmetry operations used in ECPInt.
 ECPInt:  NShTT=   16836 NPrTT=   50704 LenC2=   16033 LenP2D=   36523.
 LDataN:  DoStor=T MaxTD1= 7 Len=  274
 Symmetrizing basis deriv contribution to polar:
 IMax=3 JMax=2 DiffMx= 0.00D+00
 G2DrvN: will do    27 centers at a time, making    1 passes.
 Calling FoFCou, ICntrl=  3107 FMM=F I1Cent=   0 AccDes= 0.00D+00.
 NEqPCM:  Using equilibrium solvation (IEInf=0, Eps=  78.3553, EpsInf=   1.7778)
 G2PCM: DoFxE=T DoFxN=T DoGrad=T DoDP/DQ/DG/TGxP=FFFF NFrqRd=   0 IEInf=0 SqF1=F DoCFld=F IF1Alg=4.
 End of G2Drv F.D. properties file   721 does not exist.
 End of G2Drv F.D. properties file   722 does not exist.
 End of G2Drv F.D. properties file   788 does not exist.
          IDoAtm=11111111111111111111111111
 NEqPCM:  Using equilibrium solvation (IEInf=0, Eps=  78.3553, EpsInf=   1.7778)
          Differentiating once with respect to nuclear coordinates.
 CalDSu exits because no D1Ps are significant.
          There are    81 degrees of freedom in the 1st order CPHF.  IDoFFX=6 NUNeed=     0.
     75 vectors produced by pass  0 Test12= 2.31D-14 1.23D-09 XBig12= 1.11D-01 1.43D-01.
 AX will form    75 AO Fock derivatives at one time.
     75 vectors produced by pass  1 Test12= 2.31D-14 1.23D-09 XBig12= 2.35D-02 3.38D-02.
     75 vectors produced by pass  2 Test12= 2.31D-14 1.23D-09 XBig12= 6.59D-04 3.53D-03.
     75 vectors produced by pass  3 Test12= 2.31D-14 1.23D-09 XBig12= 8.92D-06 3.15D-04.
     75 vectors produced by pass  4 Test12= 2.31D-14 1.23D-09 XBig12= 8.23D-08 3.99D-05.
     75 vectors produced by pass  5 Test12= 2.31D-14 1.23D-09 XBig12= 6.35D-10 3.36D-06.
     75 vectors produced by pass  6 Test12= 2.31D-14 1.23D-09 XBig12= 4.83D-12 2.51D-07.
     22 vectors produced by pass  7 Test12= 2.31D-14 1.23D-09 XBig12= 3.23D-14 2.67D-08.
      3 vectors produced by pass  8 Test12= 2.31D-14 1.23D-09 XBig12= 6.16D-16 1.93D-09.
 InvSVY:  IOpt=1 It=  1 EMax= 3.61D-16
 Solved reduced A of dimension   550 with    81 vectors.
 End of Minotr F.D. properties file   721 does not exist.
 End of Minotr F.D. properties file   722 does not exist.
 End of Minotr F.D. properties file   788 does not exist.

 **********************************************************************

            Population analysis using the SCF density.

 **********************************************************************

 Orbital symmetries:
       Occupied  (A) (A) (A) (A) (A) (A) (A) (A) (A) (A) (A) (A)
                 (A) (A) (A) (A) (A) (A) (A) (A) (A) (A) (A) (A)
                 (A) (A) (A) (A) (A) (A) (A) (A) (A) (A) (A) (A)
                 (A) (A) (A) (A) (A) (A) (A) (A) (A) (A) (A) (A)
       Virtual   (A) (A) (A) (A) (A) (A) (A) (A) (A) (A) (A) (A)
                 (A) (A) (A) (A) (A) (A) (A) (A) (A) (A) (A) (A)
                 (A) (A) (A) (A) (A) (A) (A) (A) (A) (A) (A) (A)
                 (A) (A) (A) (A) (A) (A) (A) (A) (A) (A) (A) (A)
                 (A) (A) (A) (A) (A) (A) (A) (A) (A) (A) (A) (A)
                 (A) (A) (A) (A) (A) (A) (A) (A) (A) (A) (A) (A)
                 (A) (A) (A) (A) (A) (A) (A) (A) (A) (A) (A) (A)
                 (A) (A) (A) (A) (A) (A) (A) (A) (A) (A) (A) (A)
                 (A) (A) (A) (A) (A) (A) (A) (A) (A) (A) (A) (A)
                 (A) (A) (A) (A) (A) (A) (A) (A) (A) (A) (A) (A)
                 (A) (A) (A) (A) (A) (A) (A) (A) (A) (A) (A) (A)
                 (A) (A) (A) (A) (A) (A) (A) (A) (A) (A) (A) (A)
                 (A) (A) (A) (A) (A) (A) (A) (A) (A) (A) (A) (A)
                 (A) (A) (A) (A) (A) (A) (A) (A) (A) (A) (A) (A)
                 (A) (A) (A) (A) (A) (A) (A) (A) (A) (A) (A) (A)
                 (A) (A) (A) (A) (A) (A) (A) (A) (A) (A) (A) (A)
                 (A) (A) (A) (A) (A) (A) (A) (A) (A) (A) (A) (A)
                 (A) (A) (A) (A) (A) (A) (A) (A) (A) (A) (A) (A)
                 (A) (A) (A) (A) (A) (A) (A) (A) (A) (A) (A) (A)
                 (A) (A) (A) (A) (A) (A) (A) (A) (A) (A) (A) (A)
                 (A) (A) (A) (A) (A) (A) (A) (A) (A) (A) (A) (A)
                 (A) (A) (A) (A) (A) (A) (A) (A) (A) (A) (A) (A)
                 (A) (A) (A) (A) (A) (A) (A) (A) (A) (A) (A) (A)
                 (A) (A) (A) (A) (A) (A) (A) (A) (A) (A) (A) (A)
                 (A) (A) (A) (A) (A) (A) (A) (A) (A) (A) (A) (A)
                 (A) (A) (A) (A) (A) (A) (A) (A) (A) (A) (A) (A)
                 (A) (A) (A) (A) (A) (A) (A) (A) (A) (A) (A) (A)
                 (A) (A) (A) (A) (A) (A) (A) (A) (A) (A) (A) (A)
                 (A) (A) (A) (A) (A) (A) (A) (A) (A) (A) (A) (A)
                 (A) (A) (A) (A) (A) (A) (A) (A) (A) (A) (A) (A)
                 (A) (A) (A) (A) (A) (A) (A) (A) (A) (A) (A) (A)
                 (A) (A) (A) (A) (A) (A) (A) (A) (A) (A) (A) (A)
                 (A) (A) (A) (A) (A)
 The electronic state is 1-A.
 Alpha  occ. eigenvalues -- -101.67304 -19.19093 -14.49505 -14.44405 -10.36793
 Alpha  occ. eigenvalues --  -10.34302 -10.32323 -10.30457 -10.29902 -10.28871
 Alpha  occ. eigenvalues --  -10.28109  -9.55829  -7.30424  -7.29642  -7.29622
 Alpha  occ. eigenvalues --   -1.11862  -1.04981  -1.01876  -0.94681  -0.87415
 Alpha  occ. eigenvalues --   -0.81901  -0.80293  -0.79512  -0.75445  -0.68113
 Alpha  occ. eigenvalues --   -0.63839  -0.62210  -0.59924  -0.56495  -0.56066
 Alpha  occ. eigenvalues --   -0.55367  -0.54255  -0.51275  -0.50521  -0.49708
 Alpha  occ. eigenvalues --   -0.48746  -0.48186  -0.47628  -0.46802  -0.46326
 Alpha  occ. eigenvalues --   -0.44969  -0.43837  -0.42725  -0.40333  -0.37891
 Alpha  occ. eigenvalues --   -0.33504  -0.30926  -0.25511
 Alpha virt. eigenvalues --    0.07627   0.09416   0.12158   0.12670   0.13709
 Alpha virt. eigenvalues --    0.13947   0.15079   0.16033   0.17048   0.17707
 Alpha virt. eigenvalues --    0.18918   0.19115   0.19872   0.20107   0.20236
 Alpha virt. eigenvalues --    0.20883   0.20998   0.23009   0.23676   0.24267
 Alpha virt. eigenvalues --    0.25201   0.26214   0.26752   0.28083   0.29353
 Alpha virt. eigenvalues --    0.30330   0.30886   0.31030   0.33147   0.33776
 Alpha virt. eigenvalues --    0.34540   0.35171   0.36202   0.36539   0.37376
 Alpha virt. eigenvalues --    0.37934   0.40251   0.40732   0.41098   0.42398
 Alpha virt. eigenvalues --    0.43151   0.43410   0.44406   0.45171   0.46975
 Alpha virt. eigenvalues --    0.47625   0.47905   0.48528   0.49545   0.49844
 Alpha virt. eigenvalues --    0.50295   0.51030   0.51969   0.52807   0.52989
 Alpha virt. eigenvalues --    0.53672   0.54629   0.55362   0.55415   0.55882
 Alpha virt. eigenvalues --    0.56742   0.57244   0.57817   0.58586   0.58949
 Alpha virt. eigenvalues --    0.59440   0.60266   0.61014   0.61631   0.62627
 Alpha virt. eigenvalues --    0.63457   0.64393   0.64580   0.66998   0.67107
 Alpha virt. eigenvalues --    0.68313   0.70076   0.71045   0.72352   0.73644
 Alpha virt. eigenvalues --    0.75007   0.77572   0.78106   0.79612   0.80230
 Alpha virt. eigenvalues --    0.81729   0.84494   0.84812   0.85368   0.88134
 Alpha virt. eigenvalues --    0.90939   0.91783   0.92307   0.94345   0.96078
 Alpha virt. eigenvalues --    0.96940   0.97517   0.99435   1.01496   1.02433
 Alpha virt. eigenvalues --    1.03598   1.03709   1.07621   1.09080   1.11454
 Alpha virt. eigenvalues --    1.12131   1.12952   1.13402   1.14334   1.15620
 Alpha virt. eigenvalues --    1.17819   1.18528   1.20887   1.22765   1.23601
 Alpha virt. eigenvalues --    1.24748   1.26836   1.29654   1.30441   1.34058
 Alpha virt. eigenvalues --    1.34925   1.37349   1.40141   1.41826   1.43695
 Alpha virt. eigenvalues --    1.46292   1.48062   1.49692   1.51801   1.52537
 Alpha virt. eigenvalues --    1.54165   1.55242   1.57043   1.59041   1.59949
 Alpha virt. eigenvalues --    1.61003   1.62226   1.62350   1.62883   1.63332
 Alpha virt. eigenvalues --    1.64211   1.64758   1.65113   1.66420   1.66758
 Alpha virt. eigenvalues --    1.68022   1.69065   1.69527   1.71099   1.72102
 Alpha virt. eigenvalues --    1.73494   1.75481   1.77136   1.77893   1.80477
 Alpha virt. eigenvalues --    1.82254   1.83088   1.85063   1.87370   1.88688
 Alpha virt. eigenvalues --    1.89831   1.91415   1.92131   1.93632   1.94758
 Alpha virt. eigenvalues --    1.95160   1.95592   1.96879   1.98634   1.99848
 Alpha virt. eigenvalues --    2.00249   2.01243   2.02998   2.04292   2.05689
 Alpha virt. eigenvalues --    2.06842   2.08050   2.08560   2.10323   2.12098
 Alpha virt. eigenvalues --    2.13563   2.15040   2.16533   2.17800   2.18180
 Alpha virt. eigenvalues --    2.19659   2.20805   2.22070   2.23529   2.23756
 Alpha virt. eigenvalues --    2.25448   2.27362   2.28914   2.30566   2.31696
 Alpha virt. eigenvalues --    2.35151   2.35329   2.36758   2.37635   2.38557
 Alpha virt. eigenvalues --    2.39178   2.40490   2.41113   2.42466   2.43398
 Alpha virt. eigenvalues --    2.44462   2.45168   2.46186   2.46991   2.48333
 Alpha virt. eigenvalues --    2.49172   2.50153   2.52344   2.53716   2.55858
 Alpha virt. eigenvalues --    2.57339   2.58188   2.59511   2.60593   2.64108
 Alpha virt. eigenvalues --    2.64237   2.65243   2.66003   2.66634   2.67476
 Alpha virt. eigenvalues --    2.69458   2.70141   2.71555   2.72253   2.73104
 Alpha virt. eigenvalues --    2.73561   2.78008   2.78835   2.79995   2.81761
 Alpha virt. eigenvalues --    2.83388   2.84060   2.84877   2.89119   2.91486
 Alpha virt. eigenvalues --    2.92134   2.92828   2.94308   2.96379   2.97852
 Alpha virt. eigenvalues --    2.98603   3.04517   3.05501   3.07548   3.11047
 Alpha virt. eigenvalues --    3.12309   3.12559   3.14962   3.15710   3.16056
 Alpha virt. eigenvalues --    3.17564   3.18328   3.19870   3.20734   3.23401
 Alpha virt. eigenvalues --    3.25202   3.25738   3.26859   3.27512   3.28844
 Alpha virt. eigenvalues --    3.30095   3.30939   3.32663   3.34564   3.35282
 Alpha virt. eigenvalues --    3.36374   3.37617   3.38431   3.39698   3.40168
 Alpha virt. eigenvalues --    3.41991   3.43041   3.45620   3.46001   3.47828
 Alpha virt. eigenvalues --    3.48760   3.49682   3.50284   3.51345   3.53730
 Alpha virt. eigenvalues --    3.56224   3.57700   3.59660   3.60472   3.61765
 Alpha virt. eigenvalues --    3.62057   3.63685   3.66127   3.67117   3.70053
 Alpha virt. eigenvalues --    3.70424   3.73382   3.74728   3.76737   3.77890
 Alpha virt. eigenvalues --    3.80452   3.82985   3.86543   3.87806   3.90983
 Alpha virt. eigenvalues --    3.92133   3.94451   3.96446   4.01203   4.02372
 Alpha virt. eigenvalues --    4.06671   4.11951   4.15719   4.16278   4.17912
 Alpha virt. eigenvalues --    4.19024   4.23060   4.23927   4.27532   4.31073
 Alpha virt. eigenvalues --    4.32093   4.35413   4.36876   4.38184   4.41615
 Alpha virt. eigenvalues --    4.43096   4.46289   4.48068   4.48799   4.52842
 Alpha virt. eigenvalues --    4.53710   4.54857   4.57788   4.61249   4.69219
 Alpha virt. eigenvalues --    4.79073   4.80203   4.92332   4.95493   4.98159
 Alpha virt. eigenvalues --    4.98709   5.01951   5.03642   5.06895   5.09994
 Alpha virt. eigenvalues --    5.12426   5.14543   5.16093   5.19258   5.22519
 Alpha virt. eigenvalues --    5.25349   5.30013   5.31975   5.35896   5.38529
 Alpha virt. eigenvalues --    5.39469   5.44165   5.45799   5.55554   5.59228
 Alpha virt. eigenvalues --    5.59948   5.70823   5.76291   5.79643   5.87403
 Alpha virt. eigenvalues --    5.88899   6.07277   6.25071   6.42006   6.52929
 Alpha virt. eigenvalues --    6.70587   6.82207   6.95010   7.18104   7.21867
 Alpha virt. eigenvalues --   10.87771  10.95226  11.45669  22.46151  22.50638
 Alpha virt. eigenvalues --   22.52792  22.55613  22.59866  22.79914  23.47631
 Alpha virt. eigenvalues --   25.75555  32.22120  32.86896  44.07718
          Condensed to atoms (all electrons):
               1          2          3          4          5          6
     1  C    6.012044   0.253926  -0.128312   0.242748   0.005507  -0.000663
     2  C    0.253926   4.579264   0.707821   0.001404   0.000141   0.000017
     3  O   -0.128312   0.707821   8.113384  -0.001430  -0.000101   0.000008
     4  C    0.242748   0.001404  -0.001430   5.267192   0.003002   0.001210
     5  C    0.005507   0.000141  -0.000101   0.003002   4.845474   0.409774
     6  H   -0.000663   0.000017   0.000008   0.001210   0.409774   0.500244
     7  H   -0.000088  -0.000234  -0.000021  -0.000801   0.415428  -0.020802
     8  H    0.000432   0.000122  -0.000002  -0.001817   0.415396  -0.018893
     9  N   -0.073330  -0.002804   0.002248  -0.005006   0.239503  -0.022692
    10  H   -0.001625   0.004425   0.000884  -0.014009  -0.019919  -0.005243
    11  H   -0.003043  -0.001532  -0.000021  -0.002363  -0.022112  -0.003628
    12  C   -0.060385   0.006928  -0.000342   0.278345  -0.001146  -0.000001
    13  H    0.000428   0.000426   0.000004  -0.044834  -0.000168   0.000020
    14  H   -0.021861  -0.001073   0.000044  -0.010598  -0.000632  -0.000005
    15  H    0.014259   0.000120   0.000014  -0.049756  -0.001609   0.000265
    16  H   -0.050168  -0.014311  -0.000087   0.449171  -0.002291   0.000266
    17  Cl   0.184482  -0.011037  -0.012393  -0.049371  -0.000254   0.000043
    18  N   -0.247249   0.399152  -0.152543   0.052706  -0.000151   0.000022
    19  C   -0.009659  -0.053723   0.000416  -0.013767   0.000119  -0.000009
    20  C    0.005965  -0.065589  -0.001738   0.000613   0.000029  -0.000001
    21  H    0.012343  -0.008347   0.000806  -0.002726  -0.000070   0.000004
    22  H    0.005934   0.001274  -0.000397  -0.009741   0.000154  -0.000005
    23  H   -0.005417   0.000595   0.000343   0.004080  -0.000007   0.000000
    24  H    0.005982  -0.012850   0.010887  -0.001624  -0.000017   0.000000
    25  H   -0.004397  -0.004636   0.002216   0.000878   0.000001   0.000000
    26  H    0.004327   0.009659   0.002396  -0.001252  -0.000005  -0.000002
               7          8          9         10         11         12
     1  C   -0.000088   0.000432  -0.073330  -0.001625  -0.003043  -0.060385
     2  C   -0.000234   0.000122  -0.002804   0.004425  -0.001532   0.006928
     3  O   -0.000021  -0.000002   0.002248   0.000884  -0.000021  -0.000342
     4  C   -0.000801  -0.001817  -0.005006  -0.014009  -0.002363   0.278345
     5  C    0.415428   0.415396   0.239503  -0.019919  -0.022112  -0.001146
     6  H   -0.020802  -0.018893  -0.022692  -0.005243  -0.003628  -0.000001
     7  H    0.508272  -0.023776  -0.037881  -0.004686   0.005633   0.000237
     8  H   -0.023776   0.510517  -0.032676   0.005715  -0.006112   0.001009
     9  N   -0.037881  -0.032676   6.544008   0.356720   0.354524  -0.023643
    10  H   -0.004686   0.005715   0.356720   0.410972  -0.020180   0.002436
    11  H    0.005633  -0.006112   0.354524  -0.020180   0.408799  -0.004122
    12  C    0.000237   0.001009  -0.023643   0.002436  -0.004122   4.955391
    13  H   -0.000084  -0.000121   0.006273  -0.000207   0.000043   0.416733
    14  H   -0.000017   0.000060  -0.005784   0.000142   0.001899   0.405490
    15  H   -0.000127   0.001043  -0.000882   0.000279  -0.000939   0.417821
    16  H    0.002684  -0.002846  -0.033583  -0.004081   0.003498  -0.039623
    17  Cl  -0.000032  -0.000017   0.005206   0.000785   0.003464  -0.012687
    18  N    0.000261   0.000030   0.002216   0.000391   0.000053   0.002278
    19  C   -0.000249   0.000044  -0.002343   0.000533  -0.000021  -0.001052
    20  C    0.000026  -0.000001   0.000052  -0.000107   0.000011   0.000005
    21  H   -0.000019  -0.000012   0.001476  -0.000070  -0.000013  -0.000096
    22  H    0.000079  -0.000017  -0.000163   0.000008  -0.000002  -0.000361
    23  H   -0.000002   0.000001   0.000030   0.000009   0.000000   0.000100
    24  H   -0.000014  -0.000001   0.000074   0.000066   0.000001  -0.000027
    25  H    0.000001   0.000000   0.000012  -0.000000  -0.000000   0.000014
    26  H    0.000009  -0.000001  -0.000042  -0.000019   0.000001  -0.000017
              13         14         15         16         17         18
     1  C    0.000428  -0.021861   0.014259  -0.050168   0.184482  -0.247249
     2  C    0.000426  -0.001073   0.000120  -0.014311  -0.011037   0.399152
     3  O    0.000004   0.000044   0.000014  -0.000087  -0.012393  -0.152543
     4  C   -0.044834  -0.010598  -0.049756   0.449171  -0.049371   0.052706
     5  C   -0.000168  -0.000632  -0.001609  -0.002291  -0.000254  -0.000151
     6  H    0.000020  -0.000005   0.000265   0.000266   0.000043   0.000022
     7  H   -0.000084  -0.000017  -0.000127   0.002684  -0.000032   0.000261
     8  H   -0.000121   0.000060   0.001043  -0.002846  -0.000017   0.000030
     9  N    0.006273  -0.005784  -0.000882  -0.033583   0.005206   0.002216
    10  H   -0.000207   0.000142   0.000279  -0.004081   0.000785   0.000391
    11  H    0.000043   0.001899  -0.000939   0.003498   0.003464   0.000053
    12  C    0.416733   0.405490   0.417821  -0.039623  -0.012687   0.002278
    13  H    0.516497  -0.019115  -0.018369  -0.001211   0.000330  -0.000034
    14  H   -0.019115   0.518116  -0.021970   0.006574   0.012374   0.000031
    15  H   -0.018369  -0.021970   0.534856  -0.010182   0.001657  -0.000043
    16  H   -0.001211   0.006574  -0.010182   0.550260   0.006974  -0.008362
    17  Cl   0.000330   0.012374   0.001657   0.006974  17.092826   0.003495
    18  N   -0.000034   0.000031  -0.000043  -0.008362   0.003495   6.793266
    19  C   -0.000409  -0.000016   0.000276  -0.002809   0.000211   0.260774
    20  C    0.000003   0.000003   0.000001  -0.000274  -0.000459   0.277995
    21  H    0.001064  -0.000013  -0.000061  -0.007948  -0.000415  -0.035866
    22  H    0.000038  -0.000008   0.000032   0.002191  -0.000007  -0.054012
    23  H   -0.000017   0.000001   0.000001   0.000175  -0.000017  -0.035521
    24  H   -0.000000   0.000000   0.000000   0.000147  -0.000065  -0.035652
    25  H    0.000000  -0.000000  -0.000000  -0.000094   0.000020  -0.044648
    26  H   -0.000000  -0.000000  -0.000000   0.000277   0.000007  -0.048586
              19         20         21         22         23         24
     1  C   -0.009659   0.005965   0.012343   0.005934  -0.005417   0.005982
     2  C   -0.053723  -0.065589  -0.008347   0.001274   0.000595  -0.012850
     3  O    0.000416  -0.001738   0.000806  -0.000397   0.000343   0.010887
     4  C   -0.013767   0.000613  -0.002726  -0.009741   0.004080  -0.001624
     5  C    0.000119   0.000029  -0.000070   0.000154  -0.000007  -0.000017
     6  H   -0.000009  -0.000001   0.000004  -0.000005   0.000000   0.000000
     7  H   -0.000249   0.000026  -0.000019   0.000079  -0.000002  -0.000014
     8  H    0.000044  -0.000001  -0.000012  -0.000017   0.000001  -0.000001
     9  N   -0.002343   0.000052   0.001476  -0.000163   0.000030   0.000074
    10  H    0.000533  -0.000107  -0.000070   0.000008   0.000009   0.000066
    11  H   -0.000021   0.000011  -0.000013  -0.000002   0.000000   0.000001
    12  C   -0.001052   0.000005  -0.000096  -0.000361   0.000100  -0.000027
    13  H   -0.000409   0.000003   0.001064   0.000038  -0.000017  -0.000000
    14  H   -0.000016   0.000003  -0.000013  -0.000008   0.000001   0.000000
    15  H    0.000276   0.000001  -0.000061   0.000032   0.000001   0.000000
    16  H   -0.002809  -0.000274  -0.007948   0.002191   0.000175   0.000147
    17  Cl   0.000211  -0.000459  -0.000415  -0.000007  -0.000017  -0.000065
    18  N    0.260774   0.277995  -0.035866  -0.054012  -0.035521  -0.035652
    19  C    4.959636  -0.048282   0.408107   0.437400   0.390722   0.008564
    20  C   -0.048282   4.886634   0.006886  -0.007238   0.000093   0.403554
    21  H    0.408107   0.006886   0.506670  -0.033370  -0.007272  -0.000503
    22  H    0.437400  -0.007238  -0.033370   0.549144  -0.035700   0.000660
    23  H    0.390722   0.000093  -0.007272  -0.035700   0.552942  -0.000601
    24  H    0.008564   0.403554  -0.000503   0.000660  -0.000601   0.534825
    25  H   -0.009350   0.430313   0.000859  -0.001683   0.008681  -0.033335
    26  H   -0.003611   0.402432  -0.000024   0.004298  -0.007965  -0.014375
              25         26
     1  C   -0.004397   0.004327
     2  C   -0.004636   0.009659
     3  O    0.002216   0.002396
     4  C    0.000878  -0.001252
     5  C    0.000001  -0.000005
     6  H    0.000000  -0.000002
     7  H    0.000001   0.000009
     8  H    0.000000  -0.000001
     9  N    0.000012  -0.000042
    10  H   -0.000000  -0.000019
    11  H   -0.000000   0.000001
    12  C    0.000014  -0.000017
    13  H    0.000000  -0.000000
    14  H   -0.000000  -0.000000
    15  H   -0.000000  -0.000000
    16  H   -0.000094   0.000277
    17  Cl   0.000020   0.000007
    18  N   -0.044648  -0.048586
    19  C   -0.009350  -0.003611
    20  C    0.430313   0.402432
    21  H    0.000859  -0.000024
    22  H   -0.001683   0.004298
    23  H    0.008681  -0.007965
    24  H   -0.033335  -0.014375
    25  H    0.571579  -0.040155
    26  H   -0.040155   0.558642
 Mulliken charges:
               1
     1  C   -0.142182
     2  C    0.210863
     3  O   -0.544086
     4  C   -0.092254
     5  C   -0.286046
     6  H    0.160072
     7  H    0.156203
     8  H    0.151922
     9  N   -0.271510
    10  H    0.286781
    11  H    0.286162
    12  C   -0.343284
    13  H    0.142709
    14  H    0.136358
    15  H    0.133313
    16  H    0.155653
    17  Cl  -0.225120
    18  N   -0.130000
    19  C   -0.321502
    20  C   -0.290928
    21  H    0.158607
    22  H    0.141491
    23  H    0.134745
    24  H    0.134304
    25  H    0.123723
    26  H    0.134005
 Sum of Mulliken charges =  -0.00000
 Mulliken charges with hydrogens summed into heavy atoms:
               1
     1  C   -0.142182
     2  C    0.210863
     3  O   -0.544086
     4  C    0.063399
     5  C    0.182151
     9  N    0.301433
    12  C    0.069096
    17  Cl  -0.225120
    18  N   -0.130000
    19  C    0.113341
    20  C    0.101105
 APT charges:
               1
     1  C   -0.226042
     2  C   -0.342405
     3  O   -0.175538
     4  C   -0.181678
     5  C   -1.287349
     6  H    0.667630
     7  H    0.231546
     8  H    0.517189
     9  N   -0.534432
    10  H    0.306019
    11  H    0.636566
    12  C   -1.353773
    13  H    0.392060
    14  H    0.392871
    15  H    0.506757
    16  H    0.320292
    17  Cl  -0.043775
    18  N    0.107935
    19  C   -1.056045
    20  C   -1.315711
    21  H    0.164243
    22  H    0.345571
    23  H    0.604800
    24  H    0.299739
    25  H    0.528068
    26  H    0.495464
 Sum of APT charges =  -0.00000
 APT charges with hydrogens summed into heavy atoms:
               1
     1  C   -0.226042
     2  C   -0.342405
     3  O   -0.175538
     4  C    0.138613
     5  C    0.129016
     9  N    0.408152
    12  C   -0.062084
    17  Cl  -0.043775
    18  N    0.107935
    19  C    0.058569
    20  C    0.007559
 Electronic spatial extent (au):  <R**2>=           2345.9671
 Charge=             -0.0000 electrons
 Dipole moment (field-independent basis, Debye):
    X=             -6.2509    Y=            -10.5896    Z=              0.6657  Tot=             12.3149
 Quadrupole moment (field-independent basis, Debye-Ang):
   XX=            -65.7156   YY=            -79.9152   ZZ=            -72.5748
   XY=              0.5011   XZ=              9.9888   YZ=              6.3359
 Traceless Quadrupole moment (field-independent basis, Debye-Ang):
   XX=              7.0196   YY=             -7.1800   ZZ=              0.1604
   XY=              0.5011   XZ=              9.9888   YZ=              6.3359
 Octapole moment (field-independent basis, Debye-Ang**2):
  XXX=            -32.4465  YYY=            -40.7198  ZZZ=             -7.9632  XYY=            -15.8254
  XXY=            -31.2664  XXZ=             -1.8227  XZZ=            -15.1867  YZZ=            -14.6663
  YYZ=             -1.9765  XYZ=              0.9350
 Hexadecapole moment (field-independent basis, Debye-Ang**3):
 XXXX=          -1506.1674 YYYY=          -1006.4472 ZZZZ=           -450.8531 XXXY=              8.0223
 XXXZ=             52.1168 YYYX=             25.6377 YYYZ=             18.0838 ZZZX=             27.4346
 ZZZY=             19.5447 XXYY=           -417.7949 XXZZ=           -330.0095 YYZZ=           -248.6310
 XXYZ=             23.9390 YYXZ=             26.9976 ZZXY=              1.2383
 N-N= 7.697457654220D+02 E-N=-3.707737861658D+03  KE= 9.177570831760D+02
  Exact polarizability:   0.000   0.000   0.000   0.000   0.000   0.000
 Approx polarizability: 136.859   2.849 138.573  -1.367  -5.939 121.777
   1 Symmetry operations used in ECPInt.
 ECPInt:  NShTT=   16836 NPrTT=   50704 LenC2=   16033 LenP2D=   36523.
 LDataN:  DoStor=T MaxTD1= 8 Len=  415
 D2PCM: PCM CHGder 2nd derivatives, FixD1E=F FixD2E=F DoIter=F DoCFld=F I1PDM=0
 Calling FoFJK, ICntrl=    100147 FMM=F ISym2X=0 I1Cent= 0 IOpClX= 0 NMat=1 NMatS=1 NMatT=0.
 ***** Axes restored to original set *****
 -------------------------------------------------------------------
 Center     Atomic                   Forces (Hartrees/Bohr)
 Number     Number              X              Y              Z
 -------------------------------------------------------------------
      1        6          -0.000242731    0.000231927   -0.000850000
      2        6          -0.000057710   -0.000127989    0.000072269
      3        8           0.000234287    0.000395809    0.000486847
      4        6           0.000168502   -0.000111403    0.000715386
      5        6          -0.000057873    0.000025130   -0.000029345
      6        1           0.000027706   -0.000005115    0.000007599
      7        1          -0.000010110   -0.000020575    0.000039822
      8        1          -0.000013347    0.000003144    0.000011935
      9        7          -0.000020154    0.000191692    0.000012371
     10        1           0.000066701   -0.000187534   -0.000019271
     11        1           0.000052114    0.000002310    0.000018020
     12        6           0.000004020   -0.000062605    0.000005804
     13        1           0.000000117    0.000032199   -0.000003935
     14        1          -0.000021822   -0.000015110   -0.000010090
     15        1           0.000021949   -0.000006935    0.000021053
     16        1          -0.000064145    0.000001099   -0.000121302
     17       17          -0.000113787   -0.000058423   -0.000114928
     18        7          -0.000225610   -0.000531553   -0.000367324
     19        6           0.000114445    0.000132857    0.000082348
     20        6           0.000068340    0.000093298    0.000001558
     21        1           0.000131748    0.000051808    0.000065723
     22        1          -0.000065267    0.000032767    0.000012808
     23        1           0.000009480   -0.000061126   -0.000024214
     24        1          -0.000005974   -0.000021222   -0.000000037
     25        1          -0.000002046    0.000010317   -0.000013516
     26        1           0.000001165    0.000005233    0.000000419
 -------------------------------------------------------------------
 Cartesian Forces:  Max     0.000850000 RMS     0.000181141
 FormGI is forming the generalized inverse of G from B-inverse, IUseBI=4.

 GradGradGradGradGradGradGradGradGradGradGradGradGradGradGradGradGradGrad
 Berny optimization.
 Internal  Forces:  Max     0.000523495 RMS     0.000106329
 Search for a saddle point.
 Step number   1 out of a maximum of   70
 All quantities printed in internal units (Hartrees-Bohrs-Radians)
 Swapping is turned off.
 Second derivative matrix not updated -- analytic derivatives used.
 ITU=  0
     Eigenvalues ---   -0.02901   0.00081   0.00136   0.00178   0.00208
     Eigenvalues ---    0.00223   0.00442   0.00796   0.01046   0.01763
     Eigenvalues ---    0.02214   0.03183   0.03509   0.04273   0.04433
     Eigenvalues ---    0.04514   0.04708   0.04786   0.05209   0.05712
     Eigenvalues ---    0.05868   0.05954   0.06107   0.06190   0.06297
     Eigenvalues ---    0.06648   0.09070   0.10777   0.12296   0.12642
     Eigenvalues ---    0.13074   0.13216   0.13621   0.14581   0.15367
     Eigenvalues ---    0.16091   0.16505   0.16628   0.17510   0.17541
     Eigenvalues ---    0.18099   0.18181   0.19561   0.21183   0.22563
     Eigenvalues ---    0.23761   0.24456   0.27549   0.31375   0.32230
     Eigenvalues ---    0.32629   0.33099   0.33906   0.33923   0.34189
     Eigenvalues ---    0.34355   0.34507   0.34682   0.35010   0.35089
     Eigenvalues ---    0.35171   0.35583   0.36277   0.36290   0.38438
     Eigenvalues ---    0.39572   0.43142   0.45031   0.45120   0.45289
     Eigenvalues ---    0.56029   0.73199
 Eigenvectors required to have negative eigenvalues:
                          R6        D9        R2        D32       D31
   1                    0.84291   0.18541  -0.16461   0.13601   0.13580
                          D30       A10       A11       D7        D3
   1                    0.13259  -0.12978  -0.12507  -0.12078  -0.11958
 RFO step:  Lambda0=7.890036903D-07 Lambda=-2.09142146D-04.
 Linear search not attempted -- option 19 set.
 Iteration  1 RMS(Cart)=  0.04237680 RMS(Int)=  0.00106181
 Iteration  2 RMS(Cart)=  0.00160393 RMS(Int)=  0.00012323
 Iteration  3 RMS(Cart)=  0.00000143 RMS(Int)=  0.00012323
 Iteration  4 RMS(Cart)=  0.00000000 RMS(Int)=  0.00012323
 Variable       Old X    -DE/DX   Delta X   Delta X   Delta X     New X
                                 (Linear)    (Quad)   (Total)
    R1        2.72921   0.00006   0.00000  -0.00481  -0.00481   2.72439
    R2        2.65856   0.00012   0.00000  -0.00228  -0.00228   2.65629
    R3        3.35442   0.00002   0.00000  -0.00379  -0.00379   3.35064
    R4        2.34259  -0.00002   0.00000  -0.00074  -0.00074   2.34185
    R5        2.61393   0.00018   0.00000   0.00606   0.00606   2.61999
    R6        3.46213  -0.00004   0.00000   0.01512   0.01512   3.47725
    R7        2.84812  -0.00001   0.00000  -0.00105  -0.00105   2.84707
    R8        2.05051  -0.00006   0.00000  -0.00117  -0.00117   2.04934
    R9        2.05897  -0.00001   0.00000   0.00018   0.00018   2.05915
   R10        2.05714   0.00001   0.00000   0.00046   0.00046   2.05759
   R11        2.05489   0.00001   0.00000  -0.00032  -0.00032   2.05457
   R12        2.76898  -0.00000   0.00000  -0.00029  -0.00029   2.76868
   R13        1.91598   0.00004   0.00000  -0.00009  -0.00009   1.91589
   R14        1.91753  -0.00004   0.00000  -0.00042  -0.00042   1.91711
   R15        2.06139   0.00000   0.00000   0.00015   0.00015   2.06154
   R16        2.05805   0.00001   0.00000   0.00000   0.00000   2.05806
   R17        2.05819  -0.00001   0.00000  -0.00048  -0.00048   2.05771
   R18        2.73603   0.00007   0.00000   0.00269   0.00269   2.73872
   R19        2.73215   0.00003   0.00000   0.00074   0.00074   2.73289
   R20        2.05452  -0.00002   0.00000   0.00030   0.00030   2.05482
   R21        2.06919  -0.00001   0.00000  -0.00033  -0.00033   2.06885
   R22        2.06839  -0.00001   0.00000   0.00003   0.00003   2.06841
   R23        2.05352  -0.00001   0.00000   0.00026   0.00026   2.05378
   R24        2.07262  -0.00000   0.00000   0.00034   0.00034   2.07296
   R25        2.06289  -0.00000   0.00000  -0.00037  -0.00037   2.06252
    A1        2.16341   0.00026   0.00000   0.01020   0.00986   2.17327
    A2        1.99541  -0.00006   0.00000   0.00475   0.00439   1.99980
    A3        2.03277  -0.00011   0.00000   0.00404   0.00368   2.03646
    A4        2.16070  -0.00016   0.00000  -0.00029  -0.00029   2.16041
    A5        2.04289   0.00026   0.00000   0.00053   0.00053   2.04342
    A6        2.07931  -0.00011   0.00000  -0.00032  -0.00032   2.07899
    A7        1.92547  -0.00005   0.00000  -0.00622  -0.00621   1.91925
    A8        2.11591  -0.00003   0.00000   0.00155   0.00153   2.11744
    A9        1.96835   0.00008   0.00000   0.00519   0.00515   1.97350
   A10        1.77102   0.00005   0.00000   0.00004   0.00004   1.77106
   A11        1.65143  -0.00004   0.00000  -0.00617  -0.00616   1.64527
   A12        1.96012  -0.00002   0.00000   0.00196   0.00194   1.96205
   A13        1.90598  -0.00000   0.00000  -0.00079  -0.00079   1.90519
   A14        1.90273   0.00001   0.00000  -0.00026  -0.00026   1.90247
   A15        1.94145  -0.00001   0.00000   0.00033   0.00033   1.94178
   A16        1.90516  -0.00001   0.00000  -0.00060  -0.00060   1.90456
   A17        1.89894   0.00003   0.00000  -0.00006  -0.00006   1.89887
   A18        1.90928  -0.00001   0.00000   0.00135   0.00135   1.91063
   A19        2.02936   0.00000   0.00000   0.00866   0.00866   2.03802
   A20        1.79548   0.00004   0.00000  -0.00627  -0.00627   1.78921
   A21        1.87402  -0.00000   0.00000  -0.00441  -0.00443   1.86959
   A22        1.93757  -0.00005   0.00000  -0.00120  -0.00118   1.93639
   A23        1.94491  -0.00002   0.00000   0.00141   0.00141   1.94632
   A24        1.87091   0.00004   0.00000   0.00078   0.00076   1.87168
   A25        1.89306   0.00000   0.00000   0.00009   0.00009   1.89315
   A26        1.94889   0.00001   0.00000   0.00087   0.00087   1.94975
   A27        1.94972  -0.00001   0.00000  -0.00047  -0.00047   1.94925
   A28        1.88420  -0.00001   0.00000  -0.00078  -0.00078   1.88343
   A29        1.88249   0.00000   0.00000   0.00023   0.00023   1.88272
   A30        1.90314  -0.00000   0.00000   0.00002   0.00002   1.90316
   A31        2.16724   0.00008   0.00000  -0.00946  -0.01012   2.15711
   A32        2.06220  -0.00004   0.00000  -0.00805  -0.00874   2.05346
   A33        1.99812  -0.00007   0.00000  -0.00350  -0.00422   1.99390
   A34        1.92599   0.00007   0.00000   0.00155   0.00155   1.92754
   A35        1.95515   0.00001   0.00000   0.00059   0.00059   1.95574
   A36        1.91114  -0.00002   0.00000   0.00055   0.00055   1.91169
   A37        1.90169  -0.00001   0.00000  -0.00055  -0.00055   1.90113
   A38        1.88771  -0.00005   0.00000  -0.00236  -0.00236   1.88535
   A39        1.88043  -0.00001   0.00000   0.00006   0.00006   1.88049
   A40        1.92218   0.00000   0.00000   0.00106   0.00106   1.92324
   A41        1.95684   0.00001   0.00000   0.00205   0.00205   1.95889
   A42        1.90169  -0.00000   0.00000  -0.00211  -0.00211   1.89958
   A43        1.89059   0.00000   0.00000  -0.00042  -0.00042   1.89017
   A44        1.90276  -0.00001   0.00000  -0.00136  -0.00136   1.90140
   A45        1.88887   0.00000   0.00000   0.00069   0.00070   1.88956
    D1        2.43536   0.00052   0.00000   0.07278   0.07281   2.50817
    D2       -0.68065   0.00047   0.00000   0.07661   0.07664  -0.60401
    D3       -0.24196   0.00037   0.00000   0.02666   0.02663  -0.21533
    D4        2.92522   0.00032   0.00000   0.03049   0.03046   2.95567
    D5       -1.27669  -0.00007   0.00000  -0.02289  -0.02290  -1.29960
    D6        2.94345  -0.00007   0.00000  -0.01858  -0.01860   2.92485
    D7        0.54541  -0.00010   0.00000  -0.03098  -0.03102   0.51439
    D8        1.39165   0.00010   0.00000   0.02434   0.02437   1.41602
    D9       -0.67140   0.00010   0.00000   0.02865   0.02868  -0.64272
   D10       -3.06944   0.00007   0.00000   0.01625   0.01626  -3.05318
   D11       -0.58141  -0.00022   0.00000  -0.07050  -0.07040  -0.65181
   D12        2.93243  -0.00012   0.00000  -0.00206  -0.00216   2.93027
   D13        2.58452  -0.00027   0.00000  -0.06686  -0.06675   2.51777
   D14       -0.18482  -0.00017   0.00000   0.00158   0.00148  -0.18334
   D15        2.67992   0.00010   0.00000   0.05929   0.05929   2.73922
   D16        0.55870   0.00013   0.00000   0.06035   0.06037   0.61907
   D17       -1.41192   0.00008   0.00000   0.06389   0.06389  -1.34803
   D18       -1.33881   0.00006   0.00000   0.05763   0.05764  -1.28117
   D19        2.82316   0.00010   0.00000   0.05870   0.05871   2.88187
   D20        0.85254   0.00004   0.00000   0.06224   0.06223   0.91477
   D21        0.64892   0.00004   0.00000   0.05808   0.05807   0.70699
   D22       -1.47230   0.00007   0.00000   0.05914   0.05914  -1.41315
   D23        2.84027   0.00002   0.00000   0.06268   0.06266   2.90293
   D24       -1.14880  -0.00002   0.00000   0.01314   0.01314  -1.13566
   D25        0.92535  -0.00002   0.00000   0.01276   0.01276   0.93811
   D26        3.06185  -0.00002   0.00000   0.01308   0.01308   3.07493
   D27        2.99613   0.00002   0.00000   0.02039   0.02039   3.01653
   D28       -1.21290   0.00002   0.00000   0.02001   0.02001  -1.19289
   D29        0.92359   0.00002   0.00000   0.02033   0.02033   0.94393
   D30        1.25237   0.00005   0.00000   0.02672   0.02672   1.27909
   D31       -2.95666   0.00005   0.00000   0.02633   0.02633  -2.93033
   D32       -0.82016   0.00005   0.00000   0.02665   0.02665  -0.79351
   D33       -3.04980   0.00000   0.00000   0.02723   0.02723  -3.02257
   D34       -1.00572   0.00002   0.00000   0.02405   0.02405  -0.98167
   D35        1.07837   0.00002   0.00000   0.02517   0.02516   1.10353
   D36       -0.94949   0.00001   0.00000   0.02641   0.02641  -0.92308
   D37        1.09458   0.00002   0.00000   0.02323   0.02324   1.11782
   D38       -3.10451   0.00002   0.00000   0.02435   0.02435  -3.08017
   D39        1.13037   0.00000   0.00000   0.02644   0.02645   1.15682
   D40       -3.10874   0.00002   0.00000   0.02327   0.02327  -3.08547
   D41       -1.02465   0.00002   0.00000   0.02439   0.02438  -1.00027
   D42       -0.02972  -0.00008   0.00000   0.02753   0.02751  -0.00221
   D43        2.09240  -0.00003   0.00000   0.02832   0.02830   2.12070
   D44       -2.10569  -0.00004   0.00000   0.02914   0.02912  -2.07657
   D45        2.75178  -0.00017   0.00000  -0.03948  -0.03946   2.71232
   D46       -1.40929  -0.00012   0.00000  -0.03869  -0.03867  -1.44796
   D47        0.67581  -0.00013   0.00000  -0.03787  -0.03785   0.63796
   D48       -0.58440  -0.00005   0.00000  -0.05564  -0.05565  -0.64005
   D49        1.52208  -0.00004   0.00000  -0.05408  -0.05408   1.46800
   D50       -2.67067  -0.00004   0.00000  -0.05332  -0.05333  -2.72400
   D51        2.89419   0.00001   0.00000   0.00746   0.00746   2.90165
   D52       -1.28252   0.00002   0.00000   0.00902   0.00903  -1.27349
   D53        0.80791   0.00002   0.00000   0.00978   0.00979   0.81770
         Item               Value     Threshold  Converged?
 Maximum Force            0.000523     0.000450     NO 
 RMS     Force            0.000106     0.000300     YES
 Maximum Displacement     0.181522     0.001800     NO 
 RMS     Displacement     0.042644     0.001200     NO 
 Predicted change in Energy=-1.130411D-04
 GradGradGradGradGradGradGradGradGradGradGradGradGradGradGradGradGradGrad

                          Input orientation:                          
 ---------------------------------------------------------------------
 Center     Atomic      Atomic             Coordinates (Angstroms)
 Number     Number       Type             X           Y           Z
 ---------------------------------------------------------------------
      1          6           0       -0.139760    0.733237    0.271359
      2          6           0        1.194873    0.544880   -0.240241
      3          8           0        1.730885    1.301592   -1.062331
      4          6           0       -1.035023   -0.309997    0.564627
      5          6           0       -2.215313   -2.391749   -0.930115
      6          1           0       -2.477646   -2.763011   -1.920415
      7          1           0       -1.446367   -3.031907   -0.500608
      8          1           0       -3.097944   -2.420629   -0.295924
      9          7           0       -1.705325   -1.019788   -0.995114
     10          1           0       -0.912203   -0.957319   -1.623553
     11          1           0       -2.411182   -0.376264   -1.336928
     12          6           0       -2.297852   -0.061362    1.347766
     13          1           0       -2.023260    0.246862    2.357569
     14          1           0       -2.896026    0.734178    0.905734
     15          1           0       -2.906013   -0.961130    1.426761
     16          1           0       -0.537122   -1.226121    0.862751
     17         17           0       -0.852616    2.315425   -0.092422
     18          7           0        1.887966   -0.572061    0.200532
     19          6           0        1.805577   -1.084563    1.553651
     20          6           0        3.106826   -0.923061   -0.494182
     21          1           0        1.135764   -0.471442    2.151805
     22          1           0        1.456065   -2.121732    1.579850
     23          1           0        2.796655   -1.054713    2.017253
     24          1           0        3.003361   -0.723506   -1.557497
     25          1           0        3.973183   -0.362934   -0.121340
     26          1           0        3.300217   -1.987597   -0.350658
 ---------------------------------------------------------------------
                    Distance matrix (angstroms):
                    1          2          3          4          5
     1  C    0.000000
     2  C    1.441686   0.000000
     3  O    2.366658   1.239255   0.000000
     4  C    1.405646   2.520132   3.590886   0.000000
     5  C    3.939162   4.552920   5.406545   2.821529   0.000000
     6  H    4.742714   5.220395   5.913463   3.778078   1.089655
     7  H    4.059491   4.453914   5.402747   2.951733   1.088832
     8  H    4.361139   5.217818   6.144909   3.074242   1.087231
     9  N    2.669840   3.380706   4.147393   1.840082   1.465124
    10  H    2.654306   2.934267   3.521869   2.285223   2.058286
    11  H    2.996154   3.880060   4.477424   2.348216   2.065439
    12  C    2.539173   3.884382   4.888449   1.506606   3.259794
    13  H    2.852439   4.146542   5.186692   2.121637   4.219954
    14  H    2.828327   4.252594   5.059995   2.161016   3.688513
    15  H    3.443543   4.675920   5.728553   2.160521   2.842288
    16  H    2.084880   2.711613   3.903733   1.084466   2.718342
    17  Cl   1.773081   2.710884   2.939908   2.712531   4.971534
    18  N    2.412570   1.386440   2.264966   2.957213   4.628879
    19  C    2.955167   2.499219   3.541564   3.105983   4.903609
    20  C    3.724204   2.423820   2.676768   4.318777   5.538252
    21  H    2.571827   2.599671   3.718667   2.693977   4.941207
    22  H    3.522734   3.239101   4.333104   3.243236   4.455541
    23  H    3.855833   3.196980   4.021427   4.164911   5.966109
    24  H    3.917400   2.571885   2.442418   4.580714   5.514634
    25  H    4.274588   2.925281   2.946864   5.055243   6.562597
    26  H    4.429818   3.295164   3.713226   4.737763   5.560591
                    6          7          8          9         10
     6  H    0.000000
     7  H    1.775300   0.000000
     8  H    1.772277   1.772925   0.000000
     9  N    2.119313   2.088113   2.095378   0.000000
    10  H    2.408166   2.418729   2.946411   1.013845   0.000000
    11  H    2.457933   2.946648   2.394736   1.014492   1.633008
    12  C    4.244083   3.600785   2.984628   2.599760   3.398749
    13  H    5.250423   4.387745   3.912988   3.598050   4.305093
    14  H    4.515805   4.273489   3.381946   2.847348   3.632356
    15  H    3.825423   3.183306   2.265970   2.703806   3.644133
    16  H    3.724739   2.438512   3.054045   2.204299   2.528764
    17  Cl   5.636736   5.395657   5.245295   3.558878   3.613691
    18  N    5.325152   4.202406   5.340691   3.813368   3.364024
    19  C    5.764748   4.311295   5.408375   4.338990   4.182959
    20  C    6.050279   5.017852   6.386015   4.839120   4.174835
    21  H    5.906860   4.500964   5.264503   4.274993   4.322450
    22  H    5.304448   3.685218   4.934254   4.223636   4.150463
    23  H    6.800129   5.315276   6.477871   5.416955   5.198133
    24  H    5.859413   5.123066   6.457377   4.751398   3.923095
    25  H    7.114087   6.052997   7.366507   5.782767   5.145574
    26  H    6.037309   4.862420   6.413031   5.138816   4.519537
                   11         12         13         14         15
    11  H    0.000000
    12  C    2.705474   0.000000
    13  H    3.766707   1.090919   0.000000
    14  H    2.549057   1.089077   1.762675   0.000000
    15  H    2.867909   1.088891   1.762073   1.773595   0.000000
    16  H    3.012133   2.166119   2.571530   3.067418   2.449484
    17  Cl   3.350092   3.132406   3.413476   2.769871   4.154536
    18  N    4.569989   4.370129   4.541050   5.009008   4.963593
    19  C    5.161220   4.234083   4.132671   5.082587   4.714914
    20  C    5.608709   5.774585   5.984896   6.382824   6.312345
    21  H    4.976057   3.550262   3.246188   4.388798   4.135390
    22  H    5.148771   4.288459   4.280279   5.248938   4.516432
    23  H    6.231564   5.233446   5.004148   6.069780   5.733922
    24  H    5.430147   6.081270   6.444864   6.557066   6.624421
    25  H    6.499072   6.447875   6.517221   7.031683   7.076566
    26  H    6.015746   6.159009   6.377045   6.883314   6.536830
                   16         17         18         19         20
    16  H    0.000000
    17  Cl   3.681635   0.000000
    18  N    2.597572   3.991765   0.000000
    19  C    2.446552   4.619033   1.449268   0.000000
    20  C    3.900188   5.130924   1.446184   2.431656   0.000000
    21  H    2.242710   4.093511   2.093656   1.087361   3.330209
    22  H    2.299814   5.273980   2.119089   1.094790   2.909198
    23  H    3.532184   5.396827   2.087856   1.094556   2.533938
    24  H    4.318013   5.123485   2.087512   3.353251   1.086815
    25  H    4.696421   5.519309   2.120250   2.832818   1.096963
    26  H    4.096019   5.985708   2.074127   2.583759   1.091438
                   21         22         23         24         25
    21  H    0.000000
    22  H    1.775721   0.000000
    23  H    1.765465   1.768342   0.000000
    24  H    4.160573   3.767241   3.596006   0.000000
    25  H    3.637293   3.510455   2.536997   1.770061   0.000000
    26  H    3.639492   2.673153   2.594388   1.772713   1.773415
                   26
    26  H    0.000000
 Stoichiometry    C7H15ClN2O
 Framework group  C1[X(C7H15ClN2O)]
 Deg. of freedom    72
 Full point group                 C1      NOp   1
 Largest Abelian subgroup         C1      NOp   1
 Largest concise Abelian subgroup C1      NOp   1
                         Standard orientation:                         
 ---------------------------------------------------------------------
 Center     Atomic      Atomic             Coordinates (Angstroms)
 Number     Number       Type             X           Y           Z
 ---------------------------------------------------------------------
      1          6           0       -0.125478    0.734391    0.265999
      2          6           0        1.204421    0.517687   -0.246707
      3          8           0        1.754959    1.261716   -1.070771
      4          6           0       -1.041680   -0.289670    0.562161
      5          6           0       -2.266227   -2.349412   -0.927462
      6          1           0       -2.537258   -2.716998   -1.916790
      7          1           0       -1.510129   -3.004472   -0.497616
      8          1           0       -3.148550   -2.358976   -0.292258
      9          7           0       -1.728199   -0.988354   -0.995540
     10          1           0       -0.934668   -0.943356   -1.624957
     11          1           0       -2.421053   -0.331067   -1.337769
     12          6           0       -2.298244   -0.013685    1.346216
     13          1           0       -2.016232    0.290659    2.355151
     14          1           0       -2.880425    0.793189    0.903373
     15          1           0       -2.924696   -0.900606    1.427529
     16          1           0       -0.562394   -1.215300    0.861428
     17         17           0       -0.806045    2.330245   -0.099916
     18          7           0        1.874888   -0.612474    0.195365
     19          6           0        1.783498   -1.120713    1.549514
     20          6           0        3.085485   -0.989737   -0.500029
     21          1           0        1.127114   -0.492855    2.147267
     22          1           0        1.412754   -2.150423    1.578001
     23          1           0        2.775502   -1.110416    2.011980
     24          1           0        2.984949   -0.790028   -1.563596
     25          1           0        3.963601   -0.446875   -0.129162
     26          1           0        3.257098   -2.057764   -0.354757
 ---------------------------------------------------------------------
[...]
 63,-0.00000498,-0.00001041,0.00002914,-0.00000550,-0.00000700,0.000018
 49,-0.00054576,-0.00110362,-0.00072943,-0.00005774,0.00003859,0.000004
 44,0.00006826,-0.00000569,0.00014272,-0.00004981,-0.00004031,-0.000252
 42,-0.00004168,-0.00002598,0.00002735,-0.00006359,0.00002804,0.0000092
 2,-0.00008201,-0.00002684,0.00001454,-0.00290311,0.00061258,-0.0004365
 2,-0.00011167,0.00039046,-0.00001635,-0.08905896,0.02832010,0.00249949
 ,0.59540644,-0.00256630,-0.00153142,0.00393198,-0.00022731,-0.02101330
 ,0.02562491,0.00454131,-0.00133175,0.00136717,0.00106263,0.00103948,0.
 00119104,0.00013129,0.00017568,-0.00035814,-0.00008328,-0.00016374,-0.
 00000330,-0.00000735,-0.00001908,0.00004026,-0.00000942,-0.00001906,0.
 00002206,-0.00089279,-0.00068142,-0.00117653,0.00002556,0.00002067,0.0
 0009323,0.00003159,-0.00010298,-0.00000040,-0.00005694,-0.00002143,0.0
 0003183,-0.00008073,-0.00002135,-0.00003553,-0.00004761,0.00000515,-0.
 00001623,-0.00008655,-0.00002432,-0.00004177,-0.00159124,0.00166582,-0
 .00101187,-0.00043894,0.00038667,-0.00015437,0.01355920,-0.08855563,0.
 04915054,-0.02450266,0.57170401,0.00438485,0.00167329,-0.00387017,-0.0
 1758186,0.01434465,-0.01447226,0.00162692,-0.00559675,0.00669920,-0.00
 392635,-0.00376148,-0.00281570,-0.00018368,-0.00030290,0.00071156,0.00
 017488,0.00030842,0.00001008,0.00001777,0.00001653,-0.00005248,0.00003
 927,0.00004158,-0.00003364,0.00175244,0.00188423,0.00231603,-0.0002426
 3,-0.00008250,-0.00045988,-0.00003601,0.00005645,-0.00011220,0.0000720
 7,0.00008363,-0.00010474,0.00019535,-0.00000728,0.00000603,0.00003027,
 0.00001556,0.00002770,0.00015740,0.00005008,0.00002314,-0.00036142,0.0
 0022222,0.00128703,0.00135213,-0.00118862,0.00030828,0.02925089,0.0615
 2882,-0.20686947,-0.02273843,0.02904787,0.50005515,0.00515458,0.003353
 18,-0.00187451,-0.03174328,0.01999811,0.00183750,-0.00022993,-0.007067
 64,0.00539674,-0.00187576,-0.00272985,-0.00107841,-0.00016378,-0.00025
 125,0.00046567,0.00011262,0.00021484,0.00000958,-0.00000090,0.00001392
 ,-0.00005393,0.00002648,0.00002848,-0.00002723,0.00104218,0.00104469,0
 .00121979,-0.00020848,-0.00007109,-0.00030352,-0.00002904,0.00007681,-
 0.00009174,0.00011969,0.00004663,0.00015249,0.00006840,0.00002217,0.00
 000913,0.00010162,-0.00001170,0.00000384,0.00013298,0.00003874,-0.0000
 0999,-0.00024034,-0.00002185,0.00013540,0.00046081,-0.00062211,0.00043
 131,-0.19050073,0.03617458,0.07222759,-0.00305343,-0.00114734,0.004140
 62,0.50889825,0.00201386,-0.00131454,0.00221238,0.02943806,-0.01254452
 ,-0.01369060,0.00269790,-0.00127490,-0.00633263,-0.00039664,-0.0008066
 6,-0.00026234,0.00002343,0.00002816,0.00004132,0.00000470,0.00000831,-
 0.00000494,-0.00000218,0.00000617,0.00000463,-0.00000265,-0.00000737,0
 .00000167,0.00010622,0.00023349,0.00011308,0.00008229,0.00002107,0.000
 09055,-0.00000607,-0.00002289,-0.00000654,0.00004367,0.00015210,-0.000
 11217,0.00002072,0.00001283,0.00002590,-0.00004855,0.00002337,0.000055
 91,0.00002024,-0.00000062,-0.00001437,-0.00000232,0.00032969,-0.000025
 81,0.00105461,-0.00011392,0.00090080,0.03177412,-0.08584716,0.00634868
 ,-0.01201869,0.00341246,0.00118084,-0.00195641,0.58020592,-0.00184751,
 0.00153918,0.00142951,-0.00287023,-0.01142329,0.01344002,0.00050182,0.
 00258446,-0.00654872,0.00155802,0.00213093,0.00071347,0.00012323,0.000
 20303,-0.00038378,-0.00009538,-0.00017765,-0.00000632,0.00000604,-0.00
 001242,0.00004601,-0.00002045,-0.00002056,0.00001957,-0.00086810,-0.00
 088720,-0.00106595,0.00011110,0.00007142,0.00026295,0.00004049,-0.0000
 3599,0.00007838,-0.00005936,-0.00006789,-0.00016932,-0.00005468,0.0000
 0292,0.00002260,-0.00006317,0.00003092,0.00002024,-0.00011737,-0.00003
 577,0.00001235,-0.00014274,0.00007755,-0.00026542,-0.00150013,0.001691
 42,0.00036830,0.05322887,0.00602615,-0.12175401,0.02955487,-0.00775478
 ,-0.02655464,0.03305526,-0.03199094,0.59353569,-0.00071245,0.00114512,
 -0.00171095,-0.00059082,0.00074472,-0.00108276,0.00014353,-0.00033389,
 -0.00010727,-0.00318510,-0.00086095,-0.00251653,-0.00002590,-0.0000543
 1,0.00010641,0.00002361,0.00004909,-0.00000039,-0.00000091,0.00000410,
 -0.00001236,0.00000354,0.00000384,-0.00000487,0.00031147,0.00027585,0.
 00053024,0.00001729,-0.00000477,-0.00003882,0.00000329,-0.00000028,-0.
 00000147,-0.00009106,0.00005936,-0.00007113,0.00001429,0.00002959,0.00
 009811,0.00002730,0.00002680,0.00005102,0.00006095,0.00001254,0.000001
 66,-0.00120115,-0.00019557,-0.00134162,0.00021260,-0.00029996,0.000184
 44,-0.00171850,-0.00046435,0.00128636,-0.16128671,0.09605876,0.0979475
 4,0.00127647,0.00006373,0.00159999,0.17505006,0.00029297,-0.00103026,0
 .00113263,0.00044876,0.00093223,0.00127257,-0.00029572,0.00004870,0.00
 001735,0.00164862,0.00127147,0.00104000,0.00000795,0.00003544,-0.00015
 759,-0.00002757,-0.00005822,0.00000836,0.00000972,-0.00001216,0.000010
 24,-0.00000564,-0.00000040,-0.00000046,-0.00050124,-0.00055357,-0.0006
 4630,-0.00001262,0.00000578,0.00003037,0.00000115,0.00001956,0.0000168
 1,0.00003314,-0.00011110,0.00022389,-0.00006746,-0.00000119,-0.0000351
 8,0.00006707,-0.00003898,-0.00005657,-0.00001810,0.00000087,-0.0000157
 8,-0.00063959,-0.00078820,-0.00072711,-0.00008787,-0.00002134,-0.00005
 409,-0.01028878,0.00704350,0.00816689,0.09925160,-0.13337308,-0.085106
 95,-0.00007791,-0.00088639,0.00221194,-0.10588605,0.13931689,-0.000906
 09,0.00114974,0.00073935,0.00396188,-0.00294766,0.00074505,-0.00035737
 ,0.00036156,-0.00039837,-0.00164372,-0.00058801,-0.00100552,-0.0000240
 6,-0.00005511,0.00008152,0.00002718,0.00004396,0.00000572,-0.00000486,
 -0.00000325,-0.00001530,0.00000461,0.00000410,-0.00000645,0.00017019,0
 .00010718,0.00019272,0.00003192,-0.00002704,-0.00003316,-0.00001231,0.
 00001877,-0.00000146,-0.00002287,0.00006925,0.00017692,-0.00005426,0.0
 0000395,-0.00002892,0.00005743,-0.00003275,-0.00002424,0.00007214,0.00
 000906,-0.00002101,-0.00091022,-0.00071098,-0.00066642,0.00016380,-0.0
 0029904,0.00028848,0.02286050,-0.01386245,-0.02164771,0.08942039,-0.07
 666241,-0.12795481,-0.00291467,0.00165395,-0.00486254,-0.10323230,0.08
 437063,0.14567127,0.00064777,-0.00001855,-0.00052075,-0.00124222,0.001
 60395,-0.00093603,0.00010527,-0.00012696,-0.00010749,0.00007988,0.0003
 4237,-0.00016607,-0.00003152,-0.00002275,0.00004325,0.00001897,0.00002
 148,0.00000795,0.00001610,-0.00001420,0.00000254,0.00000421,0.00000423
 ,-0.00000392,0.00012027,0.00001076,0.00017619,-0.00001042,0.00000703,-
 0.00004257,-0.00000244,0.00002823,0.00000979,0.00001472,-0.00010306,0.
 00007166,0.00001225,-0.00000669,-0.00001500,0.00003950,-0.00002509,-0.
 00002866,0.00000037,0.00000712,0.00000924,-0.00073399,0.00015504,-0.00
 021435,0.00001313,-0.00006463,0.00001224,0.00243376,0.00135917,0.00409
 413,-0.07113083,-0.06999007,-0.00157983,0.00085333,-0.00076683,-0.0002
 4049,0.00715236,0.02018571,-0.00036994,0.07036050,0.00051661,0.0003241
 2,-0.00048944,-0.00530766,0.00280484,-0.00123330,0.00043447,-0.0017677
 1,0.00195485,-0.00069996,-0.00103578,-0.00055971,-0.00000652,-0.000032
 16,0.00014087,0.00003368,0.00005403,0.00000347,0.00001414,0.00000420,0
 .00000385,0.00000549,0.00000998,-0.00000587,0.00031923,0.00045675,0.00
 041408,-0.00007422,-0.00002752,-0.00007126,-0.00002018,-0.00000561,-0.
 00004437,0.00000938,0.00014930,-0.00011419,0.00002598,0.00000320,0.000
 01519,-0.00005137,0.00002327,0.00003748,0.00004294,0.00000258,0.000005
 82,0.00090123,-0.00032011,0.00053704,0.00023295,-0.00004129,0.00002554
 ,0.00310342,-0.00871229,0.01256707,-0.06910585,-0.28183551,-0.00675401
 ,0.00088960,-0.00024248,-0.00044602,-0.00600623,-0.01466787,-0.0006945
 3,0.07658761,0.30747289,-0.00116635,-0.00036461,0.00068508,0.00711357,
 -0.00040877,-0.00032671,-0.00156549,0.00222721,-0.00266242,0.00049227,
 0.00090926,-0.00015175,0.00003554,0.00005038,-0.00011989,-0.00002504,-
 0.00005180,0.00000250,0.00000707,-0.00001279,0.00001564,-0.00000266,-0
 .00000382,0.00000562,-0.00022995,-0.00031244,-0.00028224,0.00001746,0.
 00001956,0.00003505,0.00001354,-0.00000901,0.00003179,-0.00002215,-0.0
 0006093,-0.00001424,-0.00002303,-0.00000616,0.00000433,-0.00000546,-0.
 00000783,-0.00000775,-0.00003250,-0.00000513,0.00000671,-0.00032542,0.
 00018559,0.00003606,-0.00017856,0.00017664,0.00011150,0.00547485,0.037
 21874,-0.01130120,-0.00088122,-0.00910263,-0.04681310,-0.00191674,0.00
 205309,0.00108691,-0.00659190,-0.01548451,0.00056904,0.00190488,-0.004
 35579,0.05815887,-0.00134974,-0.00050999,-0.00034218,0.00061453,-0.002
 09578,0.00097907,-0.00003378,0.00005803,-0.00072511,0.00073418,0.00076
 629,0.00009227,0.00006462,0.00009251,-0.00015646,-0.00004388,-0.000075
 34,-0.00000431,0.00000778,-0.00000009,0.00002350,-0.00000843,-0.000005
 75,0.00001064,-0.00025207,-0.00030811,-0.00027768,0.00000067,0.0000309
 1,0.00008029,0.00001948,-0.00002957,0.00003608,-0.00006109,0.00008266,
 -0.00026511,0.00001207,-0.00001126,0.00002254,-0.00009866,0.00002656,0
 .00004127,-0.00005657,-0.00001894,0.00002062,0.00029326,0.00047043,0.0
 0012770,-0.00020992,0.00046752,-0.00002001,0.00389154,0.00323268,-0.00
 152384,-0.26536564,-0.01850168,-0.09114809,0.00261621,0.00220438,0.002
 73135,-0.01539602,-0.00350059,-0.00784803,-0.00864054,-0.00065106,-0.0
 0264662,0.28260085,0.00128998,0.00000375,0.00005639,-0.00072267,0.0018
 3202,0.00117796,-0.00007813,-0.00063780,-0.00008598,-0.00053292,-0.001
 20183,-0.00006281,-0.00001686,-0.00002553,0.00011887,0.00002870,0.0000
 4677,0.00000397,0.00000367,0.00000507,-0.00000458,0.00000345,0.0000048
 4,-0.00000557,0.00017731,0.00036886,0.00026775,-0.00001127,-0.00001674
 ,-0.00003031,-0.00002270,-0.00000414,-0.00005392,-0.00001974,0.0001003
 3,0.00001695,-0.00000162,0.00000451,-0.00000850,-0.00001189,0.00000234
 ,0.00001458,0.00004283,0.00000581,-0.00000551,0.00024898,-0.00017012,0
 .00007337,0.00010238,-0.00008640,0.00004427,0.01420080,0.00040794,0.01
 017531,-0.02060822,-0.05144557,-0.00908747,0.00128283,0.00032505,-0.00
 095452,0.01543000,0.00259100,0.00820339,-0.02958693,-0.00222186,-0.011
 41293,0.01936413,0.05071842,-0.00153313,-0.00027548,0.00185258,0.00334
 530,-0.00950373,-0.00160772,0.00069096,0.00277434,-0.00148740,0.001253
 18,0.00167503,0.00046926,0.00004513,0.00007718,-0.00021379,-0.00004455
 ,-0.00008853,0.00000167,0.00000266,-0.00001433,0.00001778,-0.00000769,
 -0.00000753,0.00000774,-0.00042382,-0.00066565,-0.00057609,0.00004872,
 0.00003090,0.00007738,0.00001910,0.00000228,0.00006693,-0.00007838,-0.
 00007983,0.00002717,-0.00005260,-0.00001235,-0.00001595,0.00000863,-0.
 00002304,-0.00003625,-0.00005108,-0.00000998,-0.00000084,-0.00006330,-
 0.00042255,-0.00012717,-0.00020738,0.00031294,0.00016549,-0.03025785,0
 .01112110,-0.02773691,-0.08678026,-0.00973646,-0.08463408,-0.00251784,
 0.00050455,0.00132825,0.01505101,0.00321053,0.00863574,-0.00163384,-0.
 00128228,0.00074690,0.10214986,0.00227611,0.10300876,-0.00043923,-0.00
 041370,-0.00001707,0.00124211,-0.00173038,0.00224491,-0.00061025,0.000
 95301,-0.00105894,0.00015044,0.00017475,0.00012373,0.00001307,0.000012
 86,-0.00003940,-0.00000966,-0.00001622,0.00000054,0.00000129,0.0000000
 7,0.00000504,-0.00000030,0.00000031,0.00000139,-0.00008066,-0.00008086
 ,-0.00010764,0.00000240,0.00000147,0.00001169,0.00000118,-0.00000668,0
 .00000119,0.00000242,0.00001349,0.00000267,-0.00000851,-0.00000431,-0.
 00000050,-0.00001002,-0.00000093,-0.00000177,-0.00000627,-0.00000169,0
 .00000028,0.00006162,0.00001746,-0.00000828,0.00004744,0.00000572,-0.0
 0002209,0.00107754,-0.00627186,0.03314093,-0.00396193,0.00310865,0.001
 56498,-0.05463683,0.00692642,-0.04005617,-0.00025503,-0.00050441,0.001
 61108,0.,-0.00013905,-0.00010523,0.00013544,0.00005843,0.00008378,0.06
 022762,-0.00011943,0.00009834,0.00023984,0.00070546,0.00079373,-0.0016
 1731,0.00045476,-0.00124501,0.00055998,0.00011100,0.00011532,0.0000283
 2,0.00000243,0.00000420,-0.00001009,-0.00000376,-0.00000379,-0.0000004
 3,-0.00000013,-0.00000021,0.00000188,0.00000008,-0.00000073,0.00000051
 ,-0.00001540,-0.00002633,-0.00001093,0.00000050,0.00000378,0.00000382,
 0.00000356,0.00000215,0.00000072,-0.00001981,-0.00002769,-0.00003360,0
 .00000729,-0.00000026,-0.00000277,-0.00000323,0.00000194,0.00000235,-0
 .00001185,-0.00000301,0.00000409,0.00002680,-0.00000853,0.00002643,-0.
 00004315,0.00001964,-0.00004731,-0.00135367,0.00023895,-0.00727687,0.0
 0066367,0.00004838,-0.00006297,0.00576465,-0.05557345,0.05267345,0.000
 17884,0.00017958,-0.00013766,0.00013172,0.00012854,-0.00010393,0.00005
 174,-0.00012905,0.00004850,-0.00733982,0.05477133,0.00015561,-0.000189
 06,-0.00002687,-0.00020122,0.00414091,-0.00210321,-0.00249575,0.000380
 13,0.00242620,-0.00017060,-0.00005609,-0.00009802,-0.00001520,-0.00001
 603,0.00001571,0.00000434,0.00001027,0.00000285,0.00000117,-0.00000065
 ,-0.00000345,0.00000088,0.00000215,-0.00000165,0.00004646,0.00001392,0
 .00006964,-0.00000549,0.00000650,-0.00002892,-0.00000127,0.00000844,-0
 .00000581,-0.00000685,-0.00001882,0.00002279,0.00000097,0.00000049,0.0
 0000121,0.00001278,-0.00000599,-0.00000488,0.00000437,0.00000216,0.000
 00455,-0.00004674,-0.00005163,0.00000560,0.00001610,-0.00010748,0.0000
 6179,0.00265033,0.00287075,-0.01636896,0.00254486,-0.00277428,-0.00031
 310,-0.03043778,0.04791090,-0.31101585,0.00024394,0.00053717,-0.000841
 95,0.00000130,0.00013371,0.00001593,-0.00003269,-0.00001129,0.00045527
 ,0.03038876,-0.05551847,0.33793272,-0.00135811,-0.00023478,0.00111253,
 0.00250275,-0.00829915,0.00413856,0.00106361,0.00164186,-0.00295903,0.
 00104096,0.00136883,0.00047143,0.00008350,0.00013648,-0.00025861,-0.00
 006356,-0.00011881,-0.00000181,0.00000509,-0.00000797,0.00003147,-0.00
 001444,-0.00001358,0.00001341,-0.00058056,-0.00059066,-0.00070784,0.00
 007095,0.00005224,0.00016055,0.00002078,-0.00003420,0.00004249,-0.0000
 2326,-0.00000873,-0.00008034,-0.00004231,-0.00000300,0.00001342,-0.000
 04727,0.00001374,0.00001023,-0.00006779,-0.00002020,0.00000413,-0.0000
 0108,0.00008152,-0.00017110,-0.00044175,0.00067054,0.00019271,-0.03835
 440,-0.00457280,-0.00011424,-0.00021867,0.00109582,-0.00330355,-0.1821
 0860,-0.10307709,-0.06844012,0.00016161,0.00004834,0.00010366,0.000063
 71,-0.00054467,0.00049109,0.00055449,-0.00039560,0.00078647,-0.0018247
 9,-0.00237299,-0.00202733,0.21414902,-0.00031251,-0.00036458,-0.000384
 14,0.00165882,0.00009360,0.00016248,-0.00061907,0.00094274,-0.00021121
 ,0.00000187,0.00008638,-0.00002544,0.00000019,0.00000266,-0.00001138,-
 0.00000159,-0.00000356,0.00000146,0.00000191,-0.00000088,0.,-0.0000008
 5,0.00000075,0.00000041,-0.00001774,-0.00003112,0.00001449,0.00000130,
 0.00000256,-0.00000028,0.00000069,0.00000171,0.00000244,-0.00000821,-0
 .00001070,-0.00000011,0.00000127,-0.00000096,-0.00000004,0.00000010,-0
 .00000232,-0.00000371,-0.00000268,-0.00000024,0.00000485,0.00003457,-0
 .00003337,0.00001232,-0.00001313,-0.00004064,-0.00002986,0.00813715,0.
 01008392,0.00551211,0.00019336,0.00007435,0.00025346,-0.10351372,-0.12
 711556,-0.05131583,0.00009207,-0.00002498,0.00014465,0.00003087,-0.000
 27846,-0.00026177,-0.00055238,-0.00028795,0.00035346,0.00542039,0.0035
 0136,0.00258350,0.11267258,0.13013774,-0.00014900,-0.00016722,-0.00041
 790,-0.00022669,0.00088169,-0.00005899,0.00051527,-0.00074898,0.000556
 92,-0.00004660,0.00000490,-0.00015254,-0.00001801,-0.00002111,0.000018
 55,0.00000607,0.00001256,0.00000276,0.00000188,-0.00000015,-0.00000444
 ,0.00000103,0.00000275,-0.00000191,0.00007207,0.00000996,0.00010370,-0
 .00001367,-0.00000040,-0.00003114,-0.00000151,0.00000994,-0.00000122,0
 .00000382,-0.00000662,0.00002484,0.00000279,-0.00000408,-0.00000343,0.
 00000958,-0.00000705,-0.00001045,0.00000892,0.00000426,0.00000105,0.00
 008386,-0.00009830,0.00008188,0.00005148,-0.00009087,-0.00005006,0.018
 60206,0.01032789,0.00560229,0.00205889,-0.00008398,0.00339328,-0.06873
 193,-0.05026497,-0.08425314,-0.00016205,-0.00008403,0.00016314,-0.0004
 7072,-0.00011357,-0.00016922,-0.00161786,-0.00036675,0.00008222,-0.022
 74499,-0.01818477,-0.00996500,0.06886773,0.05570232,0.08325471,-0.0011
 6679,0.00013751,-0.00007222,-0.00083638,-0.00105450,0.00576279,0.00063
 442,0.00031232,-0.00059511,0.00064704,0.00093413,0.00038051,0.00003967
 ,0.00006820,-0.00015121,-0.00003620,-0.00006576,0.00000071,0.00000390,
 -0.00000703,0.00001776,-0.00000588,-0.00000595,0.00000682,-0.00034543,
 -0.00037233,-0.00040315,0.00001604,0.00002464,0.00005730,0.00001268,-0
 .00001250,0.00001974,-0.00003032,-0.00004468,-0.00002501,-0.00002511,-
 0.00000565,-0.00000164,-0.00001531,0.00000292,-0.00000800,-0.00004307,
 -0.00001080,0.00000651,0.00000337,-0.00003544,-0.00007430,-0.00060796,
 0.00042472,-0.00020629,-0.01578627,0.03496744,-0.00311062,0.00070891,0
 .00061541,-0.00160552,-0.05607251,0.04180309,-0.00613512,0.00000528,-0
 .00008146,-0.00018408,-0.00014417,-0.00050996,0.00016803,-0.00002879,-
 0.00022493,0.00016693,-0.00111910,0.00318073,-0.00063094,0.00543012,-0
 .02320524,0.00389757,0.06876186,0.00065434,0.00020546,-0.00051989,-0.0
 0231256,0.00081087,-0.00158032,0.00101271,-0.00027956,0.00001020,-0.00
 043271,-0.00058745,-0.00029860,-0.00003536,-0.00005258,0.00010327,0.00
 002541,0.00004706,0.00000292,0.00000142,0.00000254,-0.00001263,0.00000
 496,0.00000584,-0.00000565,0.00024535,0.00023798,0.00030488,-0.0000264
 1,-0.00001404,-0.00005728,-0.00000941,0.00001497,-0.00001544,0.0000269
 4,0.00002453,0.00002202,0.00001922,0.00000296,0.00000166,0.00001512,-0
 .00000265,0.00000083,0.00003157,0.00000898,-0.00000233,0.00001280,-0.0
 0000994,0.00006617,0.00022779,-0.00014690,0.00004321,0.00653094,-0.005
 23927,0.00123836,0.00039688,0.00160696,0.00124331,0.04852165,-0.299008
 16,0.03587949,-0.00006806,0.00012272,-0.00011931,0.00025047,-0.0002450
 4,-0.00087563,-0.00058730,-0.00018974,-0.00026519,-0.00018314,-0.00288
 918,0.00014877,0.00251226,-0.01673244,0.00328661,-0.05683489,0.3223060
 7,0.00092165,-0.00006830,0.00028427,0.00115955,0.00225067,-0.00441498,
 -0.00248823,0.00103761,0.00170528,-0.00026543,-0.00045387,-0.00014260,
 -0.00001306,-0.00002034,0.00006478,0.00001416,0.00002746,-0.00000103,-
 0.00000203,0.00000293,-0.00000558,0.00000246,0.00000073,-0.00000209,0.
 00015215,0.00018797,0.00019782,0.00000670,0.,-0.00001481,-0.00000502,0
 .00000239,-0.00001243,-0.00001873,0.00000063,-0.00002503,0.00001900,0.
 00000209,-0.00000353,0.00000137,0.00000043,0.00000785,0.00000921,0.000
 00208,0.00000231,0.00003530,0.00003718,0.00004579,0.00018526,-0.000148
 58,0.00016284,0.01012313,-0.01929926,0.00108988,-0.00009766,-0.0015882
 0,0.00022278,-0.00912662,0.03960707,-0.05548455,-0.00022628,0.00011918
 ,0.00023890,-0.00000350,0.00032537,0.00033658,0.00029282,-0.00033880,-
 0.00050692,-0.00501888,0.02941719,-0.00023660,0.00162411,-0.01250419,0
 .00183410,0.00271855,-0.03859944,0.05465699\\0.00000313,0.00000078,0.0
 0000052,-0.00000063,-0.00000163,0.00000035,0.00000069,0.00000087,0.000
 00243,-0.00000320,0.00000026,0.00000069,-0.00000158,0.00000339,-0.0000
 0082,-0.00000100,0.00000414,-0.00000256,-0.00000039,0.00000199,-0.0000
 0238,0.00000176,-0.00000063,-0.00000281,0.00000034,0.00000241,-0.00000
 083,0.00000006,0.00000327,-0.00000085,-0.00000213,0.00000105,-0.000001
 41,-0.00000006,0.00000092,-0.00000037,0.00000071,-0.00000077,0.0000002
 0,0.00000055,0.00000134,0.00000043,0.00000110,0.00000061,-0.00000106,-
 0.00000203,-0.00000256,-0.00000083,0.00000200,0.00000216,0.00000184,0.
 00000190,-0.00000025,0.00000235,-0.00000066,-0.00000238,0.00000081,0.0
 0000062,-0.00000207,0.00000016,0.00000049,-0.00000271,0.00000146,-0.00
 000120,-0.00000228,-0.00000063,-0.00000074,-0.00000326,0.00000075,0.00
 000062,-0.00000061,0.00000101,0.00000011,-0.00000216,0.00000157,-0.000
 00047,-0.00000186,-0.00000003\\\@


 I DON'T EXACTLY UNDERSTAND WHAT YOU ARE SAYING,
 BUT YOU ARE ABSOLUTELY RIGHT.
     M.S.GORDON, IN A NDSU FACULTY MEETING
 Job cpu time:       0 days  6 hours 18 minutes 50.7 seconds.
 Elapsed time:       0 days  0 hours 23 minutes 44.0 seconds.
 File lengths (MBytes):  RWF=    559 Int=      0 D2E=      0 Chk=     28 Scr=      1
 Normal termination of Gaussian 16 at Sun Feb 14 00:24:19 2021.
