 Entering Gaussian System, Link 0=g16
 Initial command:
 /apps/gaussian/16/A.03/g16/l1.exe "/beegfs/scratch/user/q/tla25/Gau-68338.inp" -scrdir="/beegfs/scratch/user/q/tla25/"
 Entering Link 1 = /apps/gaussian/16/A.03/g16/l1.exe PID=     68339.
  
 Copyright (c) 1988,1990,1992,1993,1995,1998,2003,2009,2016,
            Gaussian, Inc.  All Rights Reserved.
  
 This is part of the Gaussian(R) 16 program.  It is based on
 the Gaussian(R) 09 system (copyright 2009, Gaussian, Inc.),
 the Gaussian(R) 03 system (copyright 2003, Gaussian, Inc.),
 the Gaussian(R) 98 system (copyright 1998, Gaussian, Inc.),
 the Gaussian(R) 94 system (copyright 1995, Gaussian, Inc.),
 the Gaussian 92(TM) system (copyright 1992, Gaussian, Inc.),
 the Gaussian 90(TM) system (copyright 1990, Gaussian, Inc.),
 the Gaussian 88(TM) system (copyright 1988, Gaussian, Inc.),
 the Gaussian 86(TM) system (copyright 1986, Carnegie Mellon
 University), and the Gaussian 82(TM) system (copyright 1983,
 Carnegie Mellon University). Gaussian is a federally registered
 trademark of Gaussian, Inc.
  
 This software contains proprietary and confidential information,
 including trade secrets, belonging to Gaussian, Inc.
  
 This software is provided under written license and may be
 used, copied, transmitted, or stored only in accord with that
 written license.
  
 The following legend is applicable only to US Government
 contracts under FAR:
  
                    RESTRICTED RIGHTS LEGEND
  
 Use, reproduction and disclosure by the US Government is
 subject to restrictions as set forth in subparagraphs (a)
 and (c) of the Commercial Computer Software - Restricted
 Rights clause in FAR 52.227-19.
  
 Gaussian, Inc.
 340 Quinnipiac St., Bldg. 40, Wallingford CT 06492
  
  
 ---------------------------------------------------------------
 Warning -- This program may not be used in any manner that
 competes with the business of Gaussian, Inc. or will provide
 assistance to any competitor of Gaussian, Inc.  The licensee
 of this program is prohibited from giving any competitor of
 Gaussian, Inc. access to this program.  By using this program,
 the user acknowledges that Gaussian, Inc. is engaged in the
 business of creating and licensing software in the field of
 computational chemistry and represents and warrants to the
 licensee that it is not a competitor of Gaussian, Inc. and that
 it will not use this program in any manner prohibited above.
 ---------------------------------------------------------------
  

 Cite this work as:
 Gaussian 16, Revision A.03,
 M. J. Frisch, G. W. Trucks, H. B. Schlegel, G. E. Scuseria, 
 M. A. Robb, J. R. Cheeseman, G. Scalmani, V. Barone, 
 G. A. Petersson, H. Nakatsuji, X. Li, M. Caricato, A. V. Marenich, 
 J. Bloino, B. G. Janesko, R. Gomperts, B. Mennucci, H. P. Hratchian, 
 J. V. Ortiz, A. F. Izmaylov, J. L. Sonnenberg, D. Williams-Young, 
 F. Ding, F. Lipparini, F. Egidi, J. Goings, B. Peng, A. Petrone, 
 T. Henderson, D. Ranasinghe, V. G. Zakrzewski, J. Gao, N. Rega, 
 G. Zheng, W. Liang, M. Hada, M. Ehara, K. Toyota, R. Fukuda, 
 J. Hasegawa, M. Ishida, T. Nakajima, Y. Honda, O. Kitao, H. Nakai, 
 T. Vreven, K. Throssell, J. A. Montgomery, Jr., J. E. Peralta, 
 F. Ogliaro, M. J. Bearpark, J. J. Heyd, E. N. Brothers, K. N. Kudin, 
 V. N. Staroverov, T. A. Keith, R. Kobayashi, J. Normand, 
 K. Raghavachari, A. P. Rendell, J. C. Burant, S. S. Iyengar, 
 J. Tomasi, M. Cossi, J. M. Millam, M. Klene, C. Adamo, R. Cammi, 
 J. W. Ochterski, R. L. Martin, K. Morokuma, O. Farkas, 
 J. B. Foresman, and D. J. Fox, Gaussian, Inc., Wallingford CT, 2016.
 
 ******************************************
 Gaussian 16:  ES64L-G16RevA.03 25-Dec-2016
                14-Feb-2021 
 ******************************************
 %nprocshared=16
 Will use up to   16 processors via shared memory.
 %mem=48GB
 ----------------------------------------------------------------------
 # wB97XD def2tzvp, opt=(ts, noeigen, calcfc, maxcycles=70, maxstep=5),
  freq=noraman, scrf=(iefpcm, solvent=water)
 ----------------------------------------------------------------------
 1/5=1,6=70,8=5,10=4,11=1,18=20,26=3,38=1/1,3;
 2/9=110,12=2,17=6,18=5,40=1/2;
 3/5=44,7=101,11=2,25=1,30=1,70=2201,71=2,72=1,74=-58,140=1/1,2,3;
 4//1;
 5/5=2,38=5,53=1/2;
 8/6=4,10=90,11=11/1;
 11/6=1,8=1,9=11,15=111,16=1/1,2,10;
 10/6=1,13=1/2;
 6/7=2,8=2,9=2,10=2,28=1/1;
 7/10=1,18=20,25=1/1,2,3,16;
 1/5=1,6=70,8=5,10=4,11=1,18=20,26=3/3(2);
 2/9=110/2;
 99//99;
 2/9=110/2;
 3/5=44,7=101,11=2,25=1,30=1,70=2205,71=1,72=1,74=-58/1,2,3;
 4/5=5,16=3,69=1/1;
 5/5=2,38=5,53=1/2;
 7//1,2,3,16;
 1/5=1,6=70,8=5,11=1,18=20,26=3/3(-5);
 2/9=110/2;
 6/7=2,8=2,9=2,10=2,19=2,28=1/1;
 99/9=1/99;
 ------------------------
 2_iteration/TS-484-2.out
 ------------------------
 Symbolic Z-matrix:
 Charge =  0 Multiplicity = 1
 C                    -0.26793   0.14722  -0.49168 
 C                    -0.63265   1.51172  -0.27451 
 O                    -1.74906   1.93947   0.03243 
 C                    -1.31146  -0.81882  -0.60575 
 C                    -3.27027  -1.60494   1.52731 
 H                    -3.5401   -1.44545   2.57305 
 H                    -4.11223  -1.31314   0.903 
 H                    -3.06799  -2.66387   1.37527 
 N                    -2.09518  -0.82311   1.15098 
 H                    -2.26181   0.1792    1.2114 
 H                    -1.2988   -1.04318   1.737 
 C                    -0.94158  -2.27822  -0.72745 
 H                    -0.52833  -2.47116  -1.71752 
 H                    -0.19804  -2.57704   0.01003 
 H                    -1.82743  -2.90362  -0.61943 
 C                    -2.53948  -0.4877   -1.4248 
 H                    -2.26231  -0.57422  -2.47805 
 H                    -3.34518  -1.19889  -1.24177 
 H                    -2.8967    0.52069  -1.24065 
 C                     1.12988  -0.25474  -0.18275 
 C                     1.89181  -1.04221  -1.04914 
 C                     3.18716  -1.42739  -0.7336 
 C                     3.76957  -1.01582   0.45623 
 C                     3.03847  -0.21666   1.32569 
 C                     1.73991   0.14948   1.01045 
 H                     1.46758  -1.34307  -1.99933 
 H                     3.74845  -2.0399   -1.42906 
 H                     4.78257  -1.30927   0.70164 
 H                     3.47879   0.11477   2.25851 
 H                     1.17664   0.76339   1.70482 
 O                     0.40168   2.38259  -0.41392 
 C                     0.1664    3.71992  -0.00449 
 H                     1.10863   4.24505  -0.14452 
 H                    -0.61038   4.1902   -0.60822 
 H                    -0.12691   3.76385   1.04587 
 
 Add virtual bond connecting atoms N9         and C4         Dist= 3.64D+00.

 GradGradGradGradGradGradGradGradGradGradGradGradGradGradGradGradGradGrad
 Berny optimization.
 Initialization pass.
                           ----------------------------
                           !    Initial Parameters    !
                           ! (Angstroms and Degrees)  !
 --------------------------                            --------------------------
 ! Name  Definition              Value          Derivative Info.                !
 --------------------------------------------------------------------------------
 ! R1    R(1,2)                  1.429          calculate D2E/DX2 analytically  !
 ! R2    R(1,4)                  1.4266         calculate D2E/DX2 analytically  !
 ! R3    R(1,20)                 1.4869         calculate D2E/DX2 analytically  !
 ! R4    R(2,3)                  1.2343         calculate D2E/DX2 analytically  !
 ! R5    R(2,31)                 1.3593         calculate D2E/DX2 analytically  !
 ! R6    R(4,9)                  1.9236         calculate D2E/DX2 analytically  !
 ! R7    R(4,12)                 1.5105         calculate D2E/DX2 analytically  !
 ! R8    R(4,16)                 1.5128         calculate D2E/DX2 analytically  !
 ! R9    R(5,6)                  1.0917         calculate D2E/DX2 analytically  !
 ! R10   R(5,7)                  1.088          calculate D2E/DX2 analytically  !
 ! R11   R(5,8)                  1.0887         calculate D2E/DX2 analytically  !
 ! R12   R(5,9)                  1.4607         calculate D2E/DX2 analytically  !
 ! R13   R(9,10)                 1.0179         calculate D2E/DX2 analytically  !
 ! R14   R(9,11)                 1.013          calculate D2E/DX2 analytically  !
 ! R15   R(12,13)                1.0901         calculate D2E/DX2 analytically  !
 ! R16   R(12,14)                1.089          calculate D2E/DX2 analytically  !
 ! R17   R(12,15)                1.0897         calculate D2E/DX2 analytically  !
 ! R18   R(16,17)                1.0925         calculate D2E/DX2 analytically  !
 ! R19   R(16,18)                1.0902         calculate D2E/DX2 analytically  !
 ! R20   R(16,19)                1.0855         calculate D2E/DX2 analytically  !
 ! R21   R(20,21)                1.3969         calculate D2E/DX2 analytically  !
 ! R22   R(20,25)                1.3997         calculate D2E/DX2 analytically  !
 ! R23   R(21,22)                1.3878         calculate D2E/DX2 analytically  !
 ! R24   R(21,26)                1.0832         calculate D2E/DX2 analytically  !
 ! R25   R(22,23)                1.3872         calculate D2E/DX2 analytically  !
 ! R26   R(22,27)                1.0835         calculate D2E/DX2 analytically  !
 ! R27   R(23,24)                1.3889         calculate D2E/DX2 analytically  !
 ! R28   R(23,28)                1.0828         calculate D2E/DX2 analytically  !
 ! R29   R(24,25)                1.3855         calculate D2E/DX2 analytically  !
 ! R30   R(24,29)                1.0835         calculate D2E/DX2 analytically  !
 ! R31   R(25,30)                1.0846         calculate D2E/DX2 analytically  !
 ! R32   R(31,32)                1.4183         calculate D2E/DX2 analytically  !
 ! R33   R(32,33)                1.0877         calculate D2E/DX2 analytically  !
 ! R34   R(32,34)                1.0904         calculate D2E/DX2 analytically  !
 ! R35   R(32,35)                1.0914         calculate D2E/DX2 analytically  !
 ! A1    A(2,1,4)              118.1677         calculate D2E/DX2 analytically  !
 ! A2    A(2,1,20)             117.8067         calculate D2E/DX2 analytically  !
 ! A3    A(4,1,20)             121.4129         calculate D2E/DX2 analytically  !
 ! A4    A(1,2,3)              126.837          calculate D2E/DX2 analytically  !
 ! A5    A(1,2,31)             113.7009         calculate D2E/DX2 analytically  !
 ! A6    A(3,2,31)             119.4536         calculate D2E/DX2 analytically  !
 ! A7    A(1,4,9)              103.0914         calculate D2E/DX2 analytically  !
 ! A8    A(1,4,12)             118.7893         calculate D2E/DX2 analytically  !
 ! A9    A(1,4,16)             119.2656         calculate D2E/DX2 analytically  !
 ! A10   A(9,4,12)              99.8573         calculate D2E/DX2 analytically  !
 ! A11   A(9,4,16)              99.4511         calculate D2E/DX2 analytically  !
 ! A12   A(12,4,16)            111.5088         calculate D2E/DX2 analytically  !
 ! A13   A(6,5,7)              108.6142         calculate D2E/DX2 analytically  !
 ! A14   A(6,5,8)              108.7706         calculate D2E/DX2 analytically  !
 ! A15   A(6,5,9)              111.5568         calculate D2E/DX2 analytically  !
 ! A16   A(7,5,8)              108.9347         calculate D2E/DX2 analytically  !
 ! A17   A(7,5,9)              109.3383         calculate D2E/DX2 analytically  !
 ! A18   A(8,5,9)              109.5809         calculate D2E/DX2 analytically  !
 ! A19   A(4,9,5)              124.3484         calculate D2E/DX2 analytically  !
 ! A20   A(4,9,10)              96.8177         calculate D2E/DX2 analytically  !
 ! A21   A(4,9,11)             102.0349         calculate D2E/DX2 analytically  !
 ! A22   A(5,9,10)             112.338          calculate D2E/DX2 analytically  !
 ! A23   A(5,9,11)             111.5388         calculate D2E/DX2 analytically  !
 ! A24   A(10,9,11)            107.9569         calculate D2E/DX2 analytically  !
 ! A25   A(4,12,13)            109.6962         calculate D2E/DX2 analytically  !
 ! A26   A(4,12,14)            112.1938         calculate D2E/DX2 analytically  !
 ! A27   A(4,12,15)            110.3316         calculate D2E/DX2 analytically  !
 ! A28   A(13,12,14)           107.9184         calculate D2E/DX2 analytically  !
 ! A29   A(13,12,15)           107.2552         calculate D2E/DX2 analytically  !
 ! A30   A(14,12,15)           109.2936         calculate D2E/DX2 analytically  !
 ! A31   A(4,16,17)            107.3781         calculate D2E/DX2 analytically  !
 ! A32   A(4,16,18)            111.4848         calculate D2E/DX2 analytically  !
 ! A33   A(4,16,19)            112.2477         calculate D2E/DX2 analytically  !
 ! A34   A(17,16,18)           107.3189         calculate D2E/DX2 analytically  !
 ! A35   A(17,16,19)           108.6985         calculate D2E/DX2 analytically  !
 ! A36   A(18,16,19)           109.5316         calculate D2E/DX2 analytically  !
 ! A37   A(1,20,21)            122.4321         calculate D2E/DX2 analytically  !
 ! A38   A(1,20,25)            120.5804         calculate D2E/DX2 analytically  !
 ! A39   A(21,20,25)           116.9874         calculate D2E/DX2 analytically  !
 ! A40   A(20,21,22)           121.6396         calculate D2E/DX2 analytically  !
 ! A41   A(20,21,26)           119.1449         calculate D2E/DX2 analytically  !
 ! A42   A(22,21,26)           119.2043         calculate D2E/DX2 analytically  !
 ! A43   A(21,22,23)           120.3028         calculate D2E/DX2 analytically  !
 ! A44   A(21,22,27)           119.6382         calculate D2E/DX2 analytically  !
 ! A45   A(23,22,27)           120.0524         calculate D2E/DX2 analytically  !
 ! A46   A(22,23,24)           119.1203         calculate D2E/DX2 analytically  !
 ! A47   A(22,23,28)           120.4486         calculate D2E/DX2 analytically  !
 ! A48   A(24,23,28)           120.4303         calculate D2E/DX2 analytically  !
 ! A49   A(23,24,25)           120.1959         calculate D2E/DX2 analytically  !
 ! A50   A(23,24,29)           120.0692         calculate D2E/DX2 analytically  !
 ! A51   A(25,24,29)           119.7321         calculate D2E/DX2 analytically  !
 ! A52   A(20,25,24)           121.7423         calculate D2E/DX2 analytically  !
 ! A53   A(20,25,30)           118.8735         calculate D2E/DX2 analytically  !
 ! A54   A(24,25,30)           119.3841         calculate D2E/DX2 analytically  !
 ! A55   A(2,31,32)            116.6333         calculate D2E/DX2 analytically  !
 ! A56   A(31,32,33)           105.9239         calculate D2E/DX2 analytically  !
 ! A57   A(31,32,34)           111.4084         calculate D2E/DX2 analytically  !
 ! A58   A(31,32,35)           111.1223         calculate D2E/DX2 analytically  !
 ! A59   A(33,32,34)           109.7297         calculate D2E/DX2 analytically  !
 ! A60   A(33,32,35)           109.7094         calculate D2E/DX2 analytically  !
 ! A61   A(34,32,35)           108.9068         calculate D2E/DX2 analytically  !
 ! D1    D(4,1,2,3)             12.0292         calculate D2E/DX2 analytically  !
 ! D2    D(4,1,2,31)          -169.0418         calculate D2E/DX2 analytically  !
 ! D3    D(20,1,2,3)          -149.9244         calculate D2E/DX2 analytically  !
 ! D4    D(20,1,2,31)           29.0046         calculate D2E/DX2 analytically  !
 ! D5    D(2,1,4,9)            -66.1228         calculate D2E/DX2 analytically  !
 ! D6    D(2,1,4,12)          -175.2909         calculate D2E/DX2 analytically  !
 ! D7    D(2,1,4,16)            42.7563         calculate D2E/DX2 analytically  !
 ! D8    D(20,1,4,9)            95.1493         calculate D2E/DX2 analytically  !
 ! D9    D(20,1,4,12)          -14.0188         calculate D2E/DX2 analytically  !
 ! D10   D(20,1,4,16)         -155.9715         calculate D2E/DX2 analytically  !
 ! D11   D(2,1,20,21)         -134.3183         calculate D2E/DX2 analytically  !
 ! D12   D(2,1,20,25)           45.7477         calculate D2E/DX2 analytically  !
 ! D13   D(4,1,20,21)           64.3447         calculate D2E/DX2 analytically  !
 ! D14   D(4,1,20,25)         -115.5893         calculate D2E/DX2 analytically  !
 ! D15   D(1,2,31,32)         -170.1371         calculate D2E/DX2 analytically  !
 ! D16   D(3,2,31,32)            8.8785         calculate D2E/DX2 analytically  !
 ! D17   D(1,4,9,5)            176.2932         calculate D2E/DX2 analytically  !
 ! D18   D(1,4,9,10)            53.2464         calculate D2E/DX2 analytically  !
 ! D19   D(1,4,9,11)           -56.8111         calculate D2E/DX2 analytically  !
 ! D20   D(12,4,9,5)           -60.8693         calculate D2E/DX2 analytically  !
 ! D21   D(12,4,9,10)          176.0838         calculate D2E/DX2 analytically  !
 ! D22   D(12,4,9,11)           66.0264         calculate D2E/DX2 analytically  !
 ! D23   D(16,4,9,5)            53.096          calculate D2E/DX2 analytically  !
 ! D24   D(16,4,9,10)          -69.9508         calculate D2E/DX2 analytically  !
 ! D25   D(16,4,9,11)          179.9917         calculate D2E/DX2 analytically  !
 ! D26   D(1,4,12,13)          -72.5714         calculate D2E/DX2 analytically  !
 ! D27   D(1,4,12,14)           47.3606         calculate D2E/DX2 analytically  !
 ! D28   D(1,4,12,15)          169.4826         calculate D2E/DX2 analytically  !
 ! D29   D(9,4,12,13)          176.463          calculate D2E/DX2 analytically  !
 ! D30   D(9,4,12,14)          -63.605          calculate D2E/DX2 analytically  !
 ! D31   D(9,4,12,15)           58.517          calculate D2E/DX2 analytically  !
 ! D32   D(16,4,12,13)          72.1264         calculate D2E/DX2 analytically  !
 ! D33   D(16,4,12,14)        -167.9417         calculate D2E/DX2 analytically  !
 ! D34   D(16,4,12,15)         -45.8196         calculate D2E/DX2 analytically  !
 ! D35   D(1,4,16,17)           76.0381         calculate D2E/DX2 analytically  !
 ! D36   D(1,4,16,18)         -166.6778         calculate D2E/DX2 analytically  !
 ! D37   D(1,4,16,19)          -43.3657         calculate D2E/DX2 analytically  !
 ! D38   D(9,4,16,17)         -173.0762         calculate D2E/DX2 analytically  !
 ! D39   D(9,4,16,18)          -55.7921         calculate D2E/DX2 analytically  !
 ! D40   D(9,4,16,19)           67.52           calculate D2E/DX2 analytically  !
 ! D41   D(12,4,16,17)         -68.4718         calculate D2E/DX2 analytically  !
 ! D42   D(12,4,16,18)          48.8123         calculate D2E/DX2 analytically  !
 ! D43   D(12,4,16,19)         172.1244         calculate D2E/DX2 analytically  !
 ! D44   D(6,5,9,4)           -179.5896         calculate D2E/DX2 analytically  !
 ! D45   D(6,5,9,10)           -63.7243         calculate D2E/DX2 analytically  !
 ! D46   D(6,5,9,11)            57.6427         calculate D2E/DX2 analytically  !
 ! D47   D(7,5,9,4)            -59.433          calculate D2E/DX2 analytically  !
 ! D48   D(7,5,9,10)            56.4323         calculate D2E/DX2 analytically  !
 ! D49   D(7,5,9,11)           177.7993         calculate D2E/DX2 analytically  !
 ! D50   D(8,5,9,4)             59.8969         calculate D2E/DX2 analytically  !
 ! D51   D(8,5,9,10)           175.7622         calculate D2E/DX2 analytically  !
 ! D52   D(8,5,9,11)           -62.8709         calculate D2E/DX2 analytically  !
 ! D53   D(1,20,21,22)        -178.8495         calculate D2E/DX2 analytically  !
 ! D54   D(1,20,21,26)           2.3767         calculate D2E/DX2 analytically  !
 ! D55   D(25,20,21,22)          1.0868         calculate D2E/DX2 analytically  !
 ! D56   D(25,20,21,26)       -177.687          calculate D2E/DX2 analytically  !
 ! D57   D(1,20,25,24)         179.6712         calculate D2E/DX2 analytically  !
 ! D58   D(1,20,25,30)          -0.1728         calculate D2E/DX2 analytically  !
 ! D59   D(21,20,25,24)         -0.2663         calculate D2E/DX2 analytically  !
 ! D60   D(21,20,25,30)        179.8897         calculate D2E/DX2 analytically  !
 ! D61   D(20,21,22,23)         -1.027          calculate D2E/DX2 analytically  !
 ! D62   D(20,21,22,27)        179.9047         calculate D2E/DX2 analytically  !
 ! D63   D(26,21,22,23)        177.7461         calculate D2E/DX2 analytically  !
 ! D64   D(26,21,22,27)         -1.3223         calculate D2E/DX2 analytically  !
 ! D65   D(21,22,23,24)          0.1066         calculate D2E/DX2 analytically  !
 ! D66   D(21,22,23,28)       -179.5726         calculate D2E/DX2 analytically  !
 ! D67   D(27,22,23,24)        179.171          calculate D2E/DX2 analytically  !
 ! D68   D(27,22,23,28)         -0.5081         calculate D2E/DX2 analytically  !
 ! D69   D(22,23,24,25)          0.6989         calculate D2E/DX2 analytically  !
 ! D70   D(22,23,24,29)       -179.9129         calculate D2E/DX2 analytically  !
 ! D71   D(28,23,24,25)       -179.6219         calculate D2E/DX2 analytically  !
 ! D72   D(28,23,24,29)         -0.2336         calculate D2E/DX2 analytically  !
 ! D73   D(23,24,25,20)         -0.62           calculate D2E/DX2 analytically  !
 ! D74   D(23,24,25,30)        179.2232         calculate D2E/DX2 analytically  !
 ! D75   D(29,24,25,20)        179.9897         calculate D2E/DX2 analytically  !
 ! D76   D(29,24,25,30)         -0.1671         calculate D2E/DX2 analytically  !
 ! D77   D(2,31,32,33)         177.3264         calculate D2E/DX2 analytically  !
 ! D78   D(2,31,32,34)         -63.4033         calculate D2E/DX2 analytically  !
 ! D79   D(2,31,32,35)          58.2362         calculate D2E/DX2 analytically  !
 --------------------------------------------------------------------------------
 Trust Radius=5.00D-02 FncErr=1.00D-07 GrdErr=1.00D-06 EigMax=2.50D+02 EigMin=1.00D-04
 Number of steps in this run=     70 maximum allowed number of steps=    210.
 Search for a saddle point of order  1.
 GradGradGradGradGradGradGradGradGradGradGradGradGradGradGradGradGradGrad

                          Input orientation:                          
 ---------------------------------------------------------------------
 Center     Atomic      Atomic             Coordinates (Angstroms)
 Number     Number       Type             X           Y           Z
 ---------------------------------------------------------------------
      1          6           0       -0.267930    0.147220   -0.491680
      2          6           0       -0.632650    1.511720   -0.274510
      3          8           0       -1.749060    1.939470    0.032430
      4          6           0       -1.311460   -0.818820   -0.605750
      5          6           0       -3.270270   -1.604940    1.527310
      6          1           0       -3.540100   -1.445450    2.573050
      7          1           0       -4.112230   -1.313140    0.903000
      8          1           0       -3.067990   -2.663870    1.375270
      9          7           0       -2.095180   -0.823110    1.150980
     10          1           0       -2.261810    0.179200    1.211400
     11          1           0       -1.298800   -1.043180    1.737000
     12          6           0       -0.941580   -2.278220   -0.727450
     13          1           0       -0.528330   -2.471160   -1.717520
     14          1           0       -0.198040   -2.577040    0.010030
     15          1           0       -1.827430   -2.903620   -0.619430
     16          6           0       -2.539480   -0.487700   -1.424800
     17          1           0       -2.262310   -0.574220   -2.478050
     18          1           0       -3.345180   -1.198890   -1.241770
     19          1           0       -2.896700    0.520690   -1.240650
     20          6           0        1.129880   -0.254740   -0.182750
     21          6           0        1.891810   -1.042210   -1.049140
     22          6           0        3.187160   -1.427390   -0.733600
     23          6           0        3.769570   -1.015820    0.456230
     24          6           0        3.038470   -0.216660    1.325690
     25          6           0        1.739910    0.149480    1.010450
     26          1           0        1.467580   -1.343070   -1.999330
     27          1           0        3.748450   -2.039900   -1.429060
     28          1           0        4.782570   -1.309270    0.701640
     29          1           0        3.478790    0.114770    2.258510
     30          1           0        1.176640    0.763390    1.704820
     31          8           0        0.401680    2.382590   -0.413920
     32          6           0        0.166400    3.719920   -0.004490
     33          1           0        1.108630    4.245050   -0.144520
     34          1           0       -0.610380    4.190200   -0.608220
     35          1           0       -0.126910    3.763850    1.045870
 ---------------------------------------------------------------------
                    Distance matrix (angstroms):
                    1          2          3          4          5
     1  C    0.000000
     2  C    1.429001   0.000000
     3  O    2.383400   1.234323   0.000000
     4  C    1.426604   2.449882   2.864774   0.000000
     5  C    4.020004   4.462865   4.136616   3.000811   0.000000
     6  H    4.757758   5.030578   4.595678   3.932464   1.091704
     7  H    4.342399   4.633988   4.113628   3.219471   1.088029
     8  H    4.384982   5.107662   4.973282   3.227080   1.088745
     9  N    2.641726   3.102007   3.000467   1.923626   1.460725
    10  H    2.622415   2.576373   2.179778   2.280623   2.073631
    11  H    2.728875   3.319253   3.464750   2.353503   2.060640
    12  C    2.528270   3.829391   4.361003   1.510454   3.310596
    13  H    2.902827   4.237510   4.899609   2.139989   4.335608
    14  H    2.770955   4.121627   4.775461   2.170306   3.561701
    15  H    3.428700   4.587123   4.887390   2.147744   2.894279
    16  C    2.536489   2.992799   2.939292   1.512784   3.239943
    17  H    2.905803   3.444202   3.589509   2.114108   4.256909
    18  H    3.441528   3.954847   3.744394   2.164484   2.799695
    19  H    2.758780   2.653580   2.225027   2.170339   3.509909
    20  C    1.486904   2.497061   3.626176   2.541113   4.910058
    21  C    2.527841   3.673623   4.828679   3.241518   5.796709
    22  C    3.804677   4.841496   6.024020   4.541397   6.844095
    23  C    4.307273   5.128546   6.274442   5.194562   7.145182
    24  C    3.790452   4.361773   5.407574   4.797390   6.462830
    25  C    2.507553   3.022559   4.041472   3.586163   5.333576
    26  H    2.739702   3.941547   5.024927   3.152771   5.912105
    27  H    4.668349   5.756824   6.942187   5.269873   7.628351
    28  H    5.390077   6.183483   7.325595   6.251961   8.100456
    29  H    4.647850   5.027086   5.967862   5.658805   7.002990
    30  H    2.700196   2.784111   3.569282   3.746033   5.041379
    31  O    2.334803   1.359297   2.240818   3.636024   5.757776
    32  C    3.631829   2.363798   2.615407   4.811002   6.520065
    33  H    4.336779   3.243462   3.676058   5.631372   7.496143
    34  H    4.059131   2.699280   2.602462   5.057845   6.724519
    35  H    3.932424   2.659185   2.643254   5.013170   6.239904
                    6          7          8          9         10
     6  H    0.000000
     7  H    1.770284   0.000000
     8  H    1.772600   1.771425   0.000000
     9  N    2.120704   2.090482   2.094054   0.000000
    10  H    2.475400   2.397132   2.959700   1.017861   0.000000
    11  H    2.425742   2.946833   2.426421   1.012952   1.642515
    12  C    4.282419   3.693612   3.015257   2.641332   3.397214
    13  H    5.341519   4.588298   4.006540   3.660516   4.313691
    14  H    4.361070   4.209005   3.179313   2.824390   3.646820
    15  H    3.905308   3.172969   2.361207   2.744916   3.611704
    16  C    4.230996   2.928062   3.585447   2.635250   2.733387
    17  H    5.282556   3.924246   4.456886   3.641392   3.765592
    18  H    3.827746   2.280670   3.011959   2.725612   3.015106
    19  H    4.338661   3.071755   4.124779   2.857993   2.555827
    20  C    5.551661   5.456994   5.084628   3.535943   3.692630
    21  C    6.541293   6.319237   5.753882   4.559015   4.884101
    22  C    7.496018   7.481484   6.715885   5.640914   6.004617
    23  C    7.622125   7.900049   7.093161   5.908901   6.194828
    24  C    6.807600   7.246616   6.578765   5.172298   5.316271
    25  C    5.732715   6.033104   5.582467   3.958989   4.006872
    26  H    6.781888   6.289570   5.805500   4.784148   5.151159
    27  H    8.336259   8.231462   7.397125   6.502707   6.929622
    28  H    8.531562   8.897080   7.994999   6.909537   7.217942
    29  H    7.197085   7.842188   7.166679   5.759808   5.835673
    30  H    5.280193   5.738209   5.465492   3.678115   3.522454
    31  O    6.254079   5.980642   6.380170   4.354278   3.819787
    32  C    6.860241   6.667976   7.288195   5.204707   4.462207
    33  H    7.834390   7.697282   8.215053   6.134245   5.452478
    34  H    7.103822   6.695782   7.546678   5.516583   4.703866
    35  H    6.412406   6.455929   7.076301   4.992528   4.175514
                   11         12         13         14         15
    11  H    0.000000
    12  C    2.779648   0.000000
    13  H    3.816603   1.090064   0.000000
    14  H    2.558676   1.089046   1.762025   0.000000
    15  H    3.048516   1.089736   1.755131   1.777016   0.000000
    16  C    3.441631   2.499109   2.839810   3.450568   2.644297
    17  H    4.349129   2.777147   2.680200   3.803030   3.011593
    18  H    3.617318   2.684543   3.127244   3.656609   2.365793
    19  H    3.723624   3.452501   3.845484   4.294519   3.640763
    20  C    3.194615   2.946543   3.165075   2.682091   3.994113
    21  C    4.235867   3.107942   2.888894   2.800896   4.181177
    22  C    5.135691   4.215500   3.982765   3.651611   5.228614
    23  C    5.227762   5.018933   5.031416   4.287007   6.003936
    24  C    4.434436   4.930133   5.202496   4.216320   5.888992
    25  C    3.344259   4.013030   4.410724   3.491476   4.970296
    26  H    4.658643   2.880319   2.309905   2.886953   3.898273
    27  H    6.040871   4.748203   4.308137   4.234889   5.700171
    28  H    6.174612   5.978884   5.950461   5.185754   6.926708
    29  H    4.943499   5.846540   6.209095   5.081396   6.749014
    30  H    3.064724   4.433304   5.008158   3.990054   5.279539
    31  O    4.387937   4.860638   5.111084   5.013714   5.740660
    32  C    5.278894   6.142310   6.461160   6.307514   6.944407
    33  H    6.107472   6.862669   7.089531   6.947819   7.742704
    34  H    5.776006   6.477991   6.753591   6.807921   7.197473
    35  H    4.995851   6.349406   6.831750   6.425333   7.079559
                   16         17         18         19         20
    16  C    0.000000
    17  H    1.092540   0.000000
    18  H    1.090158   1.758183   0.000000
    19  H    1.085526   1.769869   1.777102   0.000000
    20  C    3.880871   4.108214   4.694582   4.234831   0.000000
    21  C    4.481622   4.417863   5.242873   5.040750   1.396882
    22  C    5.844243   5.785130   6.556059   6.408234   2.431243
    23  C    6.604642   6.722246   7.316856   7.048363   2.820550
    24  C    6.225125   6.534107   6.950368   6.508151   2.433014
    25  C    4.964838   5.358278   5.722651   5.167533   1.399734
    26  H    4.137423   3.838279   4.874151   4.805844   2.144404
    27  H    6.476682   6.275176   7.145765   7.123913   3.405436
    28  H    7.668712   7.764088   8.357592   8.129725   3.903373
    29  H    7.081618   7.474620   7.781017   7.283939   3.407883
    30  H    5.016901   5.577811   5.742803   5.032573   2.145156
    31  O    4.232123   4.483325   5.248933   3.876785   2.745765
    32  C    5.200301   5.518765   6.169015   4.598450   4.093653
    33  H    6.111198   6.327240   7.118768   5.578085   4.500003
    34  H    5.125522   5.378181   6.076414   4.369500   4.792392
    35  H    5.477260   5.983042   6.341873   4.839215   4.386125
                   21         22         23         24         25
    21  C    0.000000
    22  C    1.387754   0.000000
    23  C    2.406827   1.387187   0.000000
    24  C    2.763364   2.393460   1.388929   0.000000
    25  C    2.384347   2.760935   2.405120   1.385530   0.000000
    26  H    1.083212   2.136852   3.381719   3.846070   3.370556
    27  H    2.141690   1.083457   2.145578   3.378894   3.844324
    28  H    3.390139   2.149232   1.082824   2.150609   3.388376
    29  H    3.846772   3.378761   2.147324   1.083458   2.140692
    30  H    3.369860   3.845465   3.383467   2.137908   1.084577
    31  O    3.788568   4.730438   4.863027   4.090844   2.967570
    32  C    5.171674   6.012603   5.968445   5.051220   4.031635
    33  H    5.420962   6.069916   5.926066   5.078647   4.301879
    34  H    5.816655   6.781913   6.886193   6.039415   4.946855
    35  H    5.618052   6.410815   6.194794   5.093367   4.068162
                   26         27         28         29         30
    26  H    0.000000
    27  H    2.452172   0.000000
    28  H    4.276160   2.478529   0.000000
    29  H    4.929449   4.279427   2.480237   0.000000
    30  H    4.271129   4.928879   4.278437   2.455031   0.000000
    31  O    4.186909   5.638244   5.836652   4.664064   2.776946
    32  C    5.595205   6.930801   6.862973   5.393533   3.561375
    33  H    5.898835   6.936807   6.712994   5.333988   3.942923
    34  H    6.072082   7.647701   7.813054   6.445819   4.504067
    35  H    6.155995   7.404540   7.068100   5.271371   3.337097
                   31         32         33         34         35
    31  O    0.000000
    32  C    1.418253   0.000000
    33  H    2.010252   1.087735   0.000000
    34  H    2.080738   1.090431   1.781298   0.000000
    35  H    2.078046   1.091429   1.781893   1.775255   0.000000
 Stoichiometry    C13H19NO2
 Framework group  C1[X(C13H19NO2)]
 Deg. of freedom    99
 Full point group                 C1      NOp   1
 Largest Abelian subgroup         C1      NOp   1
 Largest concise Abelian subgroup C1      NOp   1
                         Standard orientation:                         
 ---------------------------------------------------------------------
 Center     Atomic      Atomic             Coordinates (Angstroms)
 Number     Number       Type             X           Y           Z
 ---------------------------------------------------------------------
      1          6           0       -0.267931    0.147219   -0.491680
      2          6           0       -0.632651    1.511719   -0.274510
      3          8           0       -1.749061    1.939469    0.032430
      4          6           0       -1.311461   -0.818821   -0.605750
      5          6           0       -3.270271   -1.604941    1.527310
      6          1           0       -3.540101   -1.445451    2.573050
      7          1           0       -4.112231   -1.313141    0.903000
      8          1           0       -3.067991   -2.663871    1.375270
      9          7           0       -2.095181   -0.823111    1.150980
     10          1           0       -2.261811    0.179199    1.211400
     11          1           0       -1.298801   -1.043181    1.737000
     12          6           0       -0.941581   -2.278221   -0.727450
     13          1           0       -0.528331   -2.471161   -1.717520
     14          1           0       -0.198041   -2.577041    0.010030
     15          1           0       -1.827431   -2.903621   -0.619430
     16          6           0       -2.539481   -0.487701   -1.424800
     17          1           0       -2.262311   -0.574221   -2.478050
     18          1           0       -3.345181   -1.198891   -1.241770
     19          1           0       -2.896701    0.520689   -1.240650
     20          6           0        1.129879   -0.254741   -0.182750
     21          6           0        1.891809   -1.042211   -1.049140
     22          6           0        3.187159   -1.427391   -0.733600
     23          6           0        3.769569   -1.015821    0.456230
     24          6           0        3.038469   -0.216661    1.325690
     25          6           0        1.739909    0.149479    1.010450
     26          1           0        1.467579   -1.343071   -1.999330
     27          1           0        3.748449   -2.039901   -1.429060
     28          1           0        4.782569   -1.309271    0.701640
     29          1           0        3.478789    0.114769    2.258510
     30          1           0        1.176639    0.763389    1.704820
     31          8           0        0.401679    2.382589   -0.413920
     32          6           0        0.166399    3.719919   -0.004490
     33          1           0        1.108629    4.245049   -0.144520
     34          1           0       -0.610381    4.190199   -0.608220
     35          1           0       -0.126911    3.763849    1.045870
 ---------------------------------------------------------------------
 Rotational constants (GHZ):           0.6401074           0.4319075           0.3186305
 Standard basis: def2TZVP (5D, 7F)
 There are   690 symmetry adapted cartesian basis functions of A   symmetry.
 There are   610 symmetry adapted basis functions of A   symmetry.
   610 basis functions,   968 primitive gaussians,   690 cartesian basis functions
    60 alpha electrons       60 beta electrons
       nuclear repulsion energy      1153.3497414513 Hartrees.
 NAtoms=   35 NActive=   35 NUniq=   35 SFac= 1.00D+00 NAtFMM=   60 NAOKFM=F Big=F
 Integral buffers will be    131072 words long.
 Raffenetti 2 integral format.
 Two-electron integral symmetry is turned on.
 Nuclear repulsion after empirical dispersion term =     1153.3220166379 Hartrees.
 Force inversion solution in PCM.
 ------------------------------------------------------------------------------
 Polarizable Continuum Model (PCM)
 =================================
 Model                : PCM.
 Atomic radii         : UFF (Universal Force Field).
 Polarization charges : Total charges.
 Charge compensation  : None.
 Solution method      : Matrix inversion.
 Cavity type          : Scaled VdW (van der Waals Surface) (Alpha=1.100).
 Cavity algorithm     : GePol (No added spheres)
                        Default sphere list used, NSphG=   35.
                        Lebedev-Laikov grids with approx.  5.0 points / Ang**2.
                        Smoothing algorithm: York/Karplus (Gamma=1.0000).
                        Polarization charges: spherical gaussians, with
                                              point-specific exponents (IZeta= 3).
                        Self-potential: point-specific (ISelfS= 7).
                        Self-field    : sphere-specific E.n sum rule (ISelfD= 2).
 1st derivatives      : Analytical E(r).r(x)/FMM algorithm (CHGder, D1EAlg=3).
                        Cavity 1st derivative terms included.
 2nd derivatives      : Analytical E(r).r(xy)/FMM algorithm (CHGder, D2EAlg=3).
                        Cavity 2nd derivative terms included.
 Solvent              : Water, Eps=  78.355300 Eps(inf)=   1.777849
 ------------------------------------------------------------------------------
 One-electron integrals computed using PRISM.
   1 Symmetry operations used in ECPInt.
 ECPInt:  NShTT=   31878 NPrTT=   94804 LenC2=   29542 LenP2D=   64858.
 LDataN:  DoStor=T MaxTD1= 6 Len=  172
 NBasis=   610 RedAO= T EigKep=  7.53D-06  NBF=   610
 NBsUse=   610 1.00D-06 EigRej= -1.00D+00 NBFU=   610
 ExpMin= 9.52D-02 ExpMax= 2.70D+04 ExpMxC= 9.22D+02 IAcc=3 IRadAn=         5 AccDes= 0.00D+00
 Harris functional with IExCor= 4639 and IRadAn=       5 diagonalized for initial guess.
 HarFok:  IExCor= 4639 AccDes= 0.00D+00 IRadAn=         5 IDoV= 1 UseB2=F ITyADJ=14
 ICtDFT=  3500011 ScaDFX=  1.000000  1.000000  1.000000  1.000000
 FoFCou: FMM=F IPFlag=           0 FMFlag=      100000 FMFlg1=           0
         NFxFlg=           0 DoJE=T BraDBF=F KetDBF=T FulRan=T
         wScrn=  0.000000 ICntrl=       500 IOpCl=  0 I1Cent=   200000004 NGrid=           0
         NMat0=    1 NMatS0=      1 NMatT0=    0 NMatD0=    1 NMtDS0=    0 NMtDT0=    0
 Petite list used in FoFCou.
 Requested convergence on RMS density matrix=1.00D-08 within 128 cycles.
 Requested convergence on MAX density matrix=1.00D-06.
 Requested convergence on             energy=1.00D-06.
 No special actions if energy rises.
 Inv3:  Mode=1 IEnd=    17540172.
 Iteration    1 A*A^-1 deviation from unit magnitude is 5.33D-15 for   2400.
 Iteration    1 A*A^-1 deviation from orthogonality  is 4.54D-15 for   2394   2038.
 Iteration    1 A^-1*A deviation from unit magnitude is 5.55D-15 for   2400.
 Iteration    1 A^-1*A deviation from orthogonality  is 4.99D-15 for   2288   2257.
 Error on total polarization charges =  0.01538
 SCF Done:  E(RwB97XD) =  -712.034391599     A.U. after   14 cycles
            NFock= 14  Conv=0.68D-08     -V/T= 2.0049
 DoSCS=F DFT=T ScalE2(SS,OS)=  1.000000  1.000000
 Range of M.O.s used for correlation:     1   610
 NBasis=   610 NAE=    60 NBE=    60 NFC=     0 NFV=     0
 NROrb=    610 NOA=    60 NOB=    60 NVA=   550 NVB=   550

 **** Warning!!: The largest alpha MO coefficient is  0.54962667D+02

   1 Symmetry operations used in ECPInt.
 ECPInt:  NShTT=   31878 NPrTT=   94804 LenC2=   29542 LenP2D=   64858.
 LDataN:  DoStor=T MaxTD1= 7 Len=  274
 Number of processors reduced to  15 by ecpmxn.
 Symmetrizing basis deriv contribution to polar:
 IMax=3 JMax=2 DiffMx= 0.00D+00
 G2DrvN: will do    36 centers at a time, making    1 passes.
 Calling FoFCou, ICntrl=  3107 FMM=F I1Cent=   0 AccDes= 0.00D+00.
 NEqPCM:  Using equilibrium solvation (IEInf=0, Eps=  78.3553, EpsInf=   1.7778)
 G2PCM: DoFxE=T DoFxN=T DoGrad=T DoDP/DQ/DG/TGxP=FFFF NFrqRd=   0 IEInf=0 SqF1=F DoCFld=F IF1Alg=4.
 End of G2Drv F.D. properties file   721 does not exist.
 End of G2Drv F.D. properties file   722 does not exist.
 End of G2Drv F.D. properties file   788 does not exist.
          IDoAtm=11111111111111111111111111111111111
 NEqPCM:  Using equilibrium solvation (IEInf=0, Eps=  78.3553, EpsInf=   1.7778)
          Differentiating once with respect to nuclear coordinates.
 CalDSu exits because no D1Ps are significant.
          There are   108 degrees of freedom in the 1st order CPHF.  IDoFFX=6 NUNeed=     0.
    102 vectors produced by pass  0 Test12= 3.30D-14 1.00D-09 XBig12= 1.36D-01 1.56D-01.
 AX will form   102 AO Fock derivatives at one time.
    102 vectors produced by pass  1 Test12= 3.30D-14 1.00D-09 XBig12= 2.99D-02 4.66D-02.
    102 vectors produced by pass  2 Test12= 3.30D-14 1.00D-09 XBig12= 7.09D-04 3.93D-03.
    102 vectors produced by pass  3 Test12= 3.30D-14 1.00D-09 XBig12= 9.84D-06 4.40D-04.
    102 vectors produced by pass  4 Test12= 3.30D-14 1.00D-09 XBig12= 1.01D-07 3.00D-05.
    102 vectors produced by pass  5 Test12= 3.30D-14 1.00D-09 XBig12= 8.13D-10 2.43D-06.
    102 vectors produced by pass  6 Test12= 3.30D-14 1.00D-09 XBig12= 5.62D-12 2.11D-07.
     42 vectors produced by pass  7 Test12= 3.30D-14 1.00D-09 XBig12= 4.61D-14 2.00D-08.
     12 vectors produced by pass  8 Test12= 3.30D-14 1.00D-09 XBig12= 6.71D-15 8.91D-09.
      7 vectors produced by pass  9 Test12= 3.30D-14 1.00D-09 XBig12= 5.24D-15 9.17D-09.
      5 vectors produced by pass 10 Test12= 3.30D-14 1.00D-09 XBig12= 1.07D-15 2.69D-09.
      5 vectors produced by pass 11 Test12= 3.30D-14 1.00D-09 XBig12= 2.80D-15 4.68D-09.
      5 vectors produced by pass 12 Test12= 3.30D-14 1.00D-09 XBig12= 1.73D-15 3.11D-09.
      5 vectors produced by pass 13 Test12= 3.30D-14 1.00D-09 XBig12= 3.18D-15 6.10D-09.
      5 vectors produced by pass 14 Test12= 3.30D-14 1.00D-09 XBig12= 2.50D-15 3.20D-09.
      5 vectors produced by pass 15 Test12= 3.30D-14 1.00D-09 XBig12= 4.74D-15 5.63D-09.
      5 vectors produced by pass 16 Test12= 3.30D-14 1.00D-09 XBig12= 1.73D-15 2.59D-09.
      5 vectors produced by pass 17 Test12= 3.30D-14 1.00D-09 XBig12= 2.93D-15 3.50D-09.
      5 vectors produced by pass 18 Test12= 3.30D-14 1.00D-09 XBig12= 3.44D-15 5.44D-09.
      4 vectors produced by pass 19 Test12= 3.30D-14 1.00D-09 XBig12= 1.70D-15 2.70D-09.
      4 vectors produced by pass 20 Test12= 3.30D-14 1.00D-09 XBig12= 2.22D-15 3.37D-09.
      3 vectors produced by pass 21 Test12= 3.30D-14 1.00D-09 XBig12= 1.37D-15 2.30D-09.
      2 vectors produced by pass 22 Test12= 3.30D-14 1.00D-09 XBig12= 3.49D-16 1.85D-09.
 InvSVY:  IOpt=1 It=  1 EMax= 3.61D-16
 Solved reduced A of dimension   833 with   108 vectors.
 End of Minotr F.D. properties file   721 does not exist.
 End of Minotr F.D. properties file   722 does not exist.
 End of Minotr F.D. properties file   788 does not exist.

 **********************************************************************

            Population analysis using the SCF density.

 **********************************************************************

 Orbital symmetries:
       Occupied  (A) (A) (A) (A) (A) (A) (A) (A) (A) (A) (A) (A)
                 (A) (A) (A) (A) (A) (A) (A) (A) (A) (A) (A) (A)
                 (A) (A) (A) (A) (A) (A) (A) (A) (A) (A) (A) (A)
                 (A) (A) (A) (A) (A) (A) (A) (A) (A) (A) (A) (A)
                 (A) (A) (A) (A) (A) (A) (A) (A) (A) (A) (A) (A)
       Virtual   (A) (A) (A) (A) (A) (A) (A) (A) (A) (A) (A) (A)
                 (A) (A) (A) (A) (A) (A) (A) (A) (A) (A) (A) (A)
                 (A) (A) (A) (A) (A) (A) (A) (A) (A) (A) (A) (A)
                 (A) (A) (A) (A) (A) (A) (A) (A) (A) (A) (A) (A)
                 (A) (A) (A) (A) (A) (A) (A) (A) (A) (A) (A) (A)
                 (A) (A) (A) (A) (A) (A) (A) (A) (A) (A) (A) (A)
                 (A) (A) (A) (A) (A) (A) (A) (A) (A) (A) (A) (A)
                 (A) (A) (A) (A) (A) (A) (A) (A) (A) (A) (A) (A)
                 (A) (A) (A) (A) (A) (A) (A) (A) (A) (A) (A) (A)
                 (A) (A) (A) (A) (A) (A) (A) (A) (A) (A) (A) (A)
                 (A) (A) (A) (A) (A) (A) (A) (A) (A) (A) (A) (A)
                 (A) (A) (A) (A) (A) (A) (A) (A) (A) (A) (A) (A)
                 (A) (A) (A) (A) (A) (A) (A) (A) (A) (A) (A) (A)
                 (A) (A) (A) (A) (A) (A) (A) (A) (A) (A) (A) (A)
                 (A) (A) (A) (A) (A) (A) (A) (A) (A) (A) (A) (A)
                 (A) (A) (A) (A) (A) (A) (A) (A) (A) (A) (A) (A)
                 (A) (A) (A) (A) (A) (A) (A) (A) (A) (A) (A) (A)
                 (A) (A) (A) (A) (A) (A) (A) (A) (A) (A) (A) (A)
                 (A) (A) (A) (A) (A) (A) (A) (A) (A) (A) (A) (A)
                 (A) (A) (A) (A) (A) (A) (A) (A) (A) (A) (A) (A)
                 (A) (A) (A) (A) (A) (A) (A) (A) (A) (A) (A) (A)
                 (A) (A) (A) (A) (A) (A) (A) (A) (A) (A) (A) (A)
                 (A) (A) (A) (A) (A) (A) (A) (A) (A) (A) (A) (A)
                 (A) (A) (A) (A) (A) (A) (A) (A) (A) (A) (A) (A)
                 (A) (A) (A) (A) (A) (A) (A) (A) (A) (A) (A) (A)
                 (A) (A) (A) (A) (A) (A) (A) (A) (A) (A) (A) (A)
                 (A) (A) (A) (A) (A) (A) (A) (A) (A) (A) (A) (A)
                 (A) (A) (A) (A) (A) (A) (A) (A) (A) (A) (A) (A)
                 (A) (A) (A) (A) (A) (A) (A) (A) (A) (A) (A) (A)
                 (A) (A) (A) (A) (A) (A) (A) (A) (A) (A) (A) (A)
                 (A) (A) (A) (A) (A) (A) (A) (A) (A) (A) (A) (A)
                 (A) (A) (A) (A) (A) (A) (A) (A) (A) (A) (A) (A)
                 (A) (A) (A) (A) (A) (A) (A) (A) (A) (A) (A) (A)
                 (A) (A) (A) (A) (A) (A) (A) (A) (A) (A) (A) (A)
                 (A) (A) (A) (A) (A) (A) (A) (A) (A) (A) (A) (A)
                 (A) (A) (A) (A) (A) (A) (A) (A) (A) (A) (A) (A)
                 (A) (A) (A) (A) (A) (A) (A) (A) (A) (A) (A) (A)
                 (A) (A) (A) (A) (A) (A) (A) (A) (A) (A) (A) (A)
                 (A) (A) (A) (A) (A) (A) (A) (A) (A) (A) (A) (A)
                 (A) (A) (A) (A) (A) (A) (A) (A) (A) (A) (A) (A)
                 (A) (A) (A) (A) (A) (A) (A) (A) (A) (A) (A) (A)
                 (A) (A) (A) (A) (A) (A) (A) (A) (A) (A) (A) (A)
                 (A) (A) (A) (A) (A) (A) (A) (A) (A) (A) (A) (A)
                 (A) (A) (A) (A) (A) (A) (A) (A) (A) (A) (A) (A)
                 (A) (A) (A) (A) (A) (A) (A) (A) (A) (A) (A) (A)
                 (A) (A) (A) (A) (A) (A) (A) (A) (A) (A)
 The electronic state is 1-A.
 Alpha  occ. eigenvalues --  -19.27332 -19.20701 -14.47266 -10.38696 -10.34803
 Alpha  occ. eigenvalues --  -10.32242 -10.31487 -10.29203 -10.28297 -10.28283
 Alpha  occ. eigenvalues --  -10.28116 -10.27870 -10.27833 -10.27692 -10.26969
 Alpha  occ. eigenvalues --  -10.24972  -1.18670  -1.09045  -1.02969  -0.96007
 Alpha  occ. eigenvalues --   -0.91774  -0.86142  -0.84207  -0.82271  -0.79339
 Alpha  occ. eigenvalues --   -0.79006  -0.76962  -0.69577  -0.68749  -0.66747
 Alpha  occ. eigenvalues --   -0.62618  -0.62140  -0.60706  -0.57942  -0.56396
 Alpha  occ. eigenvalues --   -0.55916  -0.55214  -0.55080  -0.53762  -0.53023
 Alpha  occ. eigenvalues --   -0.51661  -0.51106  -0.50110  -0.49427  -0.47900
 Alpha  occ. eigenvalues --   -0.47490  -0.47001  -0.46014  -0.45689  -0.45194
 Alpha  occ. eigenvalues --   -0.43695  -0.43009  -0.41933  -0.41345  -0.39784
 Alpha  occ. eigenvalues --   -0.37459  -0.35274  -0.32966  -0.32699  -0.25623
 Alpha virt. eigenvalues --    0.05464   0.05971   0.06756   0.10022   0.12670
 Alpha virt. eigenvalues --    0.13179   0.13918   0.14884   0.15434   0.16410
 Alpha virt. eigenvalues --    0.16537   0.17250   0.18024   0.18427   0.18555
 Alpha virt. eigenvalues --    0.18777   0.19712   0.19819   0.20228   0.20975
 Alpha virt. eigenvalues --    0.21506   0.22625   0.22862   0.23209   0.23587
 Alpha virt. eigenvalues --    0.24207   0.24892   0.25646   0.25810   0.27512
 Alpha virt. eigenvalues --    0.28372   0.28678   0.29287   0.29776   0.30159
 Alpha virt. eigenvalues --    0.30762   0.31274   0.31630   0.32126   0.33320
 Alpha virt. eigenvalues --    0.33719   0.34190   0.34769   0.35305   0.36658
 Alpha virt. eigenvalues --    0.37015   0.37834   0.38430   0.38499   0.39356
 Alpha virt. eigenvalues --    0.40120   0.41587   0.41883   0.42662   0.43145
 Alpha virt. eigenvalues --    0.43503   0.44402   0.44646   0.45232   0.46103
 Alpha virt. eigenvalues --    0.46680   0.46958   0.47257   0.48090   0.48756
 Alpha virt. eigenvalues --    0.49268   0.49328   0.49819   0.50547   0.50830
 Alpha virt. eigenvalues --    0.51389   0.51861   0.52043   0.52435   0.53157
 Alpha virt. eigenvalues --    0.53519   0.53852   0.54206   0.54699   0.55563
 Alpha virt. eigenvalues --    0.56029   0.56068   0.56620   0.57332   0.57612
 Alpha virt. eigenvalues --    0.58538   0.59247   0.59296   0.59962   0.60553
 Alpha virt. eigenvalues --    0.60702   0.62199   0.62664   0.63046   0.63799
 Alpha virt. eigenvalues --    0.64706   0.65037   0.65724   0.67212   0.68352
 Alpha virt. eigenvalues --    0.70227   0.71021   0.71603   0.72286   0.73151
 Alpha virt. eigenvalues --    0.74461   0.75063   0.75729   0.76066   0.77814
 Alpha virt. eigenvalues --    0.78284   0.79100   0.79797   0.80414   0.81304
 Alpha virt. eigenvalues --    0.82645   0.83551   0.85395   0.85770   0.86552
 Alpha virt. eigenvalues --    0.87902   0.88844   0.89968   0.91048   0.91521
 Alpha virt. eigenvalues --    0.92297   0.93541   0.94088   0.94898   0.95656
 Alpha virt. eigenvalues --    0.96433   0.97207   0.98096   0.98538   0.99094
 Alpha virt. eigenvalues --    1.00078   1.00755   1.02836   1.03685   1.04609
 Alpha virt. eigenvalues --    1.05394   1.06269   1.08261   1.09067   1.09587
 Alpha virt. eigenvalues --    1.11196   1.11837   1.14183   1.14650   1.15142
 Alpha virt. eigenvalues --    1.16326   1.16696   1.17442   1.18968   1.19417
 Alpha virt. eigenvalues --    1.20504   1.21306   1.22745   1.24370   1.25487
 Alpha virt. eigenvalues --    1.27431   1.28498   1.29116   1.30360   1.30497
 Alpha virt. eigenvalues --    1.32114   1.32815   1.33817   1.34456   1.36217
 Alpha virt. eigenvalues --    1.36683   1.37619   1.38255   1.39668   1.41513
 Alpha virt. eigenvalues --    1.42215   1.43972   1.45401   1.47024   1.48475
 Alpha virt. eigenvalues --    1.50210   1.50419   1.52447   1.54007   1.54774
 Alpha virt. eigenvalues --    1.55064   1.56043   1.56593   1.57631   1.58141
 Alpha virt. eigenvalues --    1.59169   1.59490   1.60654   1.61047   1.61956
 Alpha virt. eigenvalues --    1.62361   1.63024   1.63361   1.64975   1.65181
 Alpha virt. eigenvalues --    1.65636   1.66637   1.67703   1.68135   1.68933
 Alpha virt. eigenvalues --    1.69277   1.70787   1.71166   1.71702   1.72892
 Alpha virt. eigenvalues --    1.74537   1.74901   1.75592   1.76387   1.77443
 Alpha virt. eigenvalues --    1.77753   1.78587   1.79688   1.80660   1.81322
 Alpha virt. eigenvalues --    1.82235   1.82982   1.84689   1.85466   1.86659
 Alpha virt. eigenvalues --    1.88336   1.89729   1.90355   1.91925   1.94622
 Alpha virt. eigenvalues --    1.95564   1.95769   1.96338   1.97485   1.99230
 Alpha virt. eigenvalues --    2.00300   2.01586   2.02670   2.04472   2.06008
 Alpha virt. eigenvalues --    2.06559   2.07989   2.09231   2.10540   2.11364
 Alpha virt. eigenvalues --    2.12501   2.13266   2.13632   2.13827   2.15766
 Alpha virt. eigenvalues --    2.16005   2.17016   2.17805   2.18500   2.18959
 Alpha virt. eigenvalues --    2.20203   2.22332   2.23726   2.24513   2.25400
 Alpha virt. eigenvalues --    2.26502   2.27362   2.30071   2.30618   2.32351
 Alpha virt. eigenvalues --    2.34005   2.35211   2.36196   2.37034   2.37652
 Alpha virt. eigenvalues --    2.39097   2.39469   2.40466   2.41316   2.42761
 Alpha virt. eigenvalues --    2.43124   2.44009   2.44846   2.46123   2.46399
 Alpha virt. eigenvalues --    2.47169   2.49486   2.50481   2.51762   2.52466
 Alpha virt. eigenvalues --    2.52873   2.54962   2.57157   2.57794   2.58058
 Alpha virt. eigenvalues --    2.60943   2.61483   2.62265   2.63472   2.63650
 Alpha virt. eigenvalues --    2.64555   2.65035   2.66105   2.66567   2.67388
 Alpha virt. eigenvalues --    2.68428   2.68694   2.68962   2.69840   2.71609
 Alpha virt. eigenvalues --    2.72735   2.73331   2.73762   2.74951   2.75712
 Alpha virt. eigenvalues --    2.77021   2.77375   2.78231   2.78831   2.80321
 Alpha virt. eigenvalues --    2.80377   2.81237   2.81609   2.82780   2.84765
 Alpha virt. eigenvalues --    2.84913   2.86332   2.86611   2.87629   2.88215
 Alpha virt. eigenvalues --    2.88973   2.89961   2.91188   2.92779   2.93096
 Alpha virt. eigenvalues --    2.93807   2.95014   2.95836   2.96523   2.98400
 Alpha virt. eigenvalues --    2.98925   2.99547   2.99982   3.00868   3.02078
 Alpha virt. eigenvalues --    3.03754   3.04717   3.07616   3.09424   3.10290
 Alpha virt. eigenvalues --    3.11838   3.12860   3.13307   3.14514   3.15677
 Alpha virt. eigenvalues --    3.16761   3.17802   3.18769   3.19518   3.20047
 Alpha virt. eigenvalues --    3.21489   3.22055   3.23335   3.24177   3.24509
 Alpha virt. eigenvalues --    3.24933   3.25757   3.26484   3.27716   3.28784
 Alpha virt. eigenvalues --    3.29118   3.30029   3.31336   3.31912   3.32249
 Alpha virt. eigenvalues --    3.33435   3.34021   3.35433   3.36278   3.36748
 Alpha virt. eigenvalues --    3.37424   3.38069   3.39704   3.40000   3.40470
 Alpha virt. eigenvalues --    3.41061   3.42112   3.42633   3.43133   3.45016
 Alpha virt. eigenvalues --    3.45189   3.47034   3.47549   3.47716   3.49020
 Alpha virt. eigenvalues --    3.49526   3.50185   3.51076   3.52056   3.52385
 Alpha virt. eigenvalues --    3.54073   3.54880   3.55157   3.55963   3.57076
 Alpha virt. eigenvalues --    3.57607   3.58429   3.60340   3.61211   3.61952
 Alpha virt. eigenvalues --    3.62625   3.62907   3.63575   3.65446   3.66507
 Alpha virt. eigenvalues --    3.66717   3.67919   3.69717   3.70286   3.72415
 Alpha virt. eigenvalues --    3.73552   3.74128   3.75926   3.76831   3.77852
 Alpha virt. eigenvalues --    3.78300   3.79207   3.80423   3.82262   3.83170
 Alpha virt. eigenvalues --    3.85144   3.88066   3.89062   3.91508   3.93905
 Alpha virt. eigenvalues --    3.94762   3.97802   4.00857   4.02491   4.03584
 Alpha virt. eigenvalues --    4.04873   4.07232   4.09461   4.11227   4.12928
 Alpha virt. eigenvalues --    4.14378   4.16018   4.17259   4.18364   4.19007
 Alpha virt. eigenvalues --    4.20958   4.22542   4.23250   4.25722   4.27541
 Alpha virt. eigenvalues --    4.28196   4.29319   4.31229   4.31736   4.33488
 Alpha virt. eigenvalues --    4.34791   4.36260   4.36844   4.38445   4.39537
 Alpha virt. eigenvalues --    4.40354   4.43887   4.44831   4.45874   4.47139
 Alpha virt. eigenvalues --    4.48429   4.49936   4.50914   4.54054   4.55102
 Alpha virt. eigenvalues --    4.57177   4.61357   4.63054   4.65008   4.66258
 Alpha virt. eigenvalues --    4.67995   4.70905   4.73713   4.75515   4.77049
 Alpha virt. eigenvalues --    4.79997   4.82689   4.85512   4.86094   4.88742
 Alpha virt. eigenvalues --    4.95065   4.99460   5.00660   5.01416   5.06358
 Alpha virt. eigenvalues --    5.07015   5.08535   5.11157   5.14603   5.21050
 Alpha virt. eigenvalues --    5.24365   5.25106   5.25981   5.28998   5.31554
 Alpha virt. eigenvalues --    5.33638   5.33799   5.35931   5.39412   5.41341
 Alpha virt. eigenvalues --    5.43077   5.49682   5.55803   5.58992   5.60512
 Alpha virt. eigenvalues --    5.61513   5.63633   5.67140   5.73648   5.79614
 Alpha virt. eigenvalues --    5.83413   5.94299   5.96350   6.06394   6.20849
 Alpha virt. eigenvalues --    6.27941   6.39724   6.46223   6.53400   6.68404
 Alpha virt. eigenvalues --    6.79661   6.83156   6.91562   6.99824   7.03531
 Alpha virt. eigenvalues --    7.16875   7.23848   7.39788   7.54293  22.22897
 Alpha virt. eigenvalues --   22.48954  22.50083  22.57867  22.61802  22.71073
 Alpha virt. eigenvalues --   22.74801  22.85368  22.94758  22.98065  23.09215
 Alpha virt. eigenvalues --   23.35353  23.57882  32.28303  44.14924  44.31772
          Condensed to atoms (all electrons):
               1          2          3          4          5          6
     1  C    6.306558   0.373907  -0.171258   0.281853   0.007172  -0.001008
     2  C    0.373907   4.440338   0.554260  -0.113396   0.001030  -0.000031
     3  O   -0.171258   0.554260   8.189484   0.046974  -0.000212   0.000094
     4  C    0.281853  -0.113396   0.046974   5.476215   0.003189   0.001895
     5  C    0.007172   0.001030  -0.000212   0.003189   4.866070   0.406762
     6  H   -0.001008  -0.000031   0.000094   0.001895   0.406762   0.513718
     7  H   -0.000317   0.000285   0.000278  -0.006162   0.420980  -0.020922
     8  H    0.001410  -0.000077  -0.000061  -0.002751   0.420008  -0.021603
     9  N   -0.083193  -0.005823  -0.018510   0.021634   0.221814  -0.022377
    10  H   -0.007238  -0.003198   0.031907  -0.029124  -0.023371  -0.003732
    11  H   -0.001829   0.001423   0.000033  -0.010327  -0.021492  -0.005682
    12  C   -0.076481   0.004230   0.002797   0.264566   0.000821   0.000032
    13  H   -0.002137  -0.000132  -0.000009  -0.037983  -0.000220   0.000015
    14  H   -0.032080  -0.001116   0.000033  -0.012805  -0.000880   0.000016
    15  H    0.021102   0.000163   0.000010  -0.055822  -0.000788   0.000255
    16  C   -0.058681   0.011387  -0.044133   0.226904  -0.001170   0.000430
    17  H   -0.006216  -0.003419   0.000997  -0.032050  -0.000396   0.000022
    18  H    0.017972   0.000703   0.000538  -0.054111  -0.001836   0.000448
    19  H   -0.024568  -0.000142   0.016831  -0.017200   0.000058  -0.000125
    20  C    0.091978  -0.038693   0.014406  -0.080750  -0.000014  -0.000005
    21  C   -0.107747   0.003759  -0.000200  -0.007197  -0.000178   0.000012
    22  C    0.007105  -0.002111   0.000016   0.003426  -0.000003  -0.000000
    23  C   -0.004624   0.000628   0.000008  -0.001279   0.000000   0.000000
    24  C    0.014701  -0.002147  -0.000204   0.001994   0.000019  -0.000003
    25  C   -0.138922   0.002695  -0.002205   0.000546  -0.000131   0.000040
    26  H    0.006823   0.001329  -0.000018  -0.001705  -0.000007   0.000000
    27  H   -0.000314  -0.000005  -0.000000   0.000005   0.000000  -0.000000
    28  H    0.000043  -0.000000   0.000000   0.000002  -0.000000   0.000000
    29  H   -0.000370   0.000005   0.000001   0.000042  -0.000000   0.000000
    30  H    0.001000   0.003336   0.000204  -0.002190  -0.000026  -0.000005
    31  O   -0.163570   0.394831  -0.086142   0.012520   0.000009   0.000001
    32  C    0.008761  -0.048639   0.001965  -0.002026  -0.000010   0.000001
    33  H    0.002985   0.002496   0.002041   0.000028  -0.000000  -0.000000
    34  H   -0.000123  -0.013514   0.006198  -0.000048   0.000000   0.000000
    35  H   -0.002643   0.001157   0.006514  -0.000335   0.000001  -0.000001
               7          8          9         10         11         12
     1  C   -0.000317   0.001410  -0.083193  -0.007238  -0.001829  -0.076481
     2  C    0.000285  -0.000077  -0.005823  -0.003198   0.001423   0.004230
     3  O    0.000278  -0.000061  -0.018510   0.031907   0.000033   0.002797
     4  C   -0.006162  -0.002751   0.021634  -0.029124  -0.010327   0.264566
     5  C    0.420980   0.420008   0.221814  -0.023371  -0.021492   0.000821
     6  H   -0.020922  -0.021603  -0.022377  -0.003732  -0.005682   0.000032
     7  H    0.513876  -0.025340  -0.037277  -0.006247   0.006199  -0.001619
     8  H   -0.025340   0.517729  -0.040229   0.006012  -0.005267   0.003586
     9  N   -0.037277  -0.040229   6.575625   0.361133   0.357631  -0.011721
    10  H   -0.006247   0.006012   0.361133   0.425759  -0.022503   0.007192
    11  H    0.006199  -0.005267   0.357631  -0.022503   0.424076  -0.008132
    12  C   -0.001619   0.003586  -0.011721   0.007192  -0.008132   5.021696
    13  H   -0.000060  -0.000047   0.005082  -0.000225  -0.000096   0.419830
    14  H    0.000088  -0.000440  -0.002358  -0.000002   0.001531   0.409829
    15  H   -0.000185  -0.000586  -0.005635   0.000380  -0.000385   0.430718
    16  C    0.005095  -0.003761   0.001237  -0.010583   0.006130  -0.071310
    17  H   -0.000003  -0.000088   0.006193   0.000050  -0.000184   0.002110
    18  H   -0.002324  -0.000224  -0.004128   0.000207  -0.000057  -0.015634
    19  H   -0.000415   0.000194  -0.007436   0.000286  -0.000098   0.008677
    20  C    0.000040   0.000127   0.003801   0.002404   0.002869  -0.017588
    21  C   -0.000003  -0.000041   0.003469  -0.000030  -0.000260   0.006637
    22  C    0.000000  -0.000002   0.000141  -0.000006  -0.000042   0.002870
    23  C   -0.000000   0.000001   0.000021   0.000004  -0.000011   0.000241
    24  C    0.000000  -0.000000  -0.000394  -0.000067   0.000106   0.000083
    25  C   -0.000017   0.000026   0.000124   0.000061   0.001357  -0.004933
    26  H   -0.000000  -0.000001   0.000146   0.000010  -0.000019  -0.001804
    27  H    0.000000   0.000000  -0.000002  -0.000000   0.000001   0.000067
    28  H   -0.000000   0.000000   0.000000  -0.000000  -0.000000  -0.000003
    29  H    0.000000  -0.000000   0.000000   0.000002  -0.000007   0.000004
    30  H    0.000001   0.000006   0.000183   0.000366   0.000425   0.000206
    31  O    0.000001  -0.000000  -0.000297   0.000294  -0.000029  -0.000129
    32  C   -0.000001  -0.000000   0.000177  -0.000036   0.000001  -0.000017
    33  H   -0.000000   0.000000  -0.000000  -0.000005  -0.000000  -0.000001
    34  H   -0.000000   0.000000   0.000025  -0.000101  -0.000002  -0.000010
    35  H    0.000000   0.000000  -0.000041   0.000205   0.000010   0.000004
              13         14         15         16         17         18
     1  C   -0.002137  -0.032080   0.021102  -0.058681  -0.006216   0.017972
     2  C   -0.000132  -0.001116   0.000163   0.011387  -0.003419   0.000703
     3  O   -0.000009   0.000033   0.000010  -0.044133   0.000997   0.000538
     4  C   -0.037983  -0.012805  -0.055822   0.226904  -0.032050  -0.054111
     5  C   -0.000220  -0.000880  -0.000788  -0.001170  -0.000396  -0.001836
     6  H    0.000015   0.000016   0.000255   0.000430   0.000022   0.000448
     7  H   -0.000060   0.000088  -0.000185   0.005095  -0.000003  -0.002324
     8  H   -0.000047  -0.000440  -0.000586  -0.003761  -0.000088  -0.000224
     9  N    0.005082  -0.002358  -0.005635   0.001237   0.006193  -0.004128
    10  H   -0.000225  -0.000002   0.000380  -0.010583   0.000050   0.000207
    11  H   -0.000096   0.001531  -0.000385   0.006130  -0.000184  -0.000057
    12  C    0.419830   0.409829   0.430718  -0.071310   0.002110  -0.015634
    13  H    0.513699  -0.018271  -0.018824   0.001373   0.001282   0.000065
    14  H   -0.018271   0.517985  -0.022769   0.009653  -0.000138   0.000243
    15  H   -0.018824  -0.022769   0.522895  -0.019578   0.000177   0.003676
    16  C    0.001373   0.009653  -0.019578   5.094254   0.400475   0.427250
    17  H    0.001282  -0.000138   0.000177   0.400475   0.529728  -0.020406
    18  H    0.000065   0.000243   0.003676   0.427250  -0.020406   0.543247
    19  H   -0.000162  -0.000291   0.000184   0.414770  -0.013900  -0.024763
    20  C   -0.009653   0.008440   0.000348   0.010091  -0.000528  -0.000298
    21  C    0.001477  -0.005714   0.001669  -0.001175   0.000117   0.000097
    22  C    0.000658   0.000060  -0.000119   0.000111   0.000015   0.000001
    23  C    0.000085  -0.000175   0.000022  -0.000023   0.000000   0.000000
    24  C   -0.000061   0.000611  -0.000060   0.000045   0.000000  -0.000003
    25  C   -0.000161   0.000404   0.000162  -0.000259  -0.000022   0.000039
    26  H   -0.001477  -0.001450   0.000467  -0.000473   0.000134   0.000038
    27  H   -0.000010  -0.000015  -0.000004   0.000000  -0.000000  -0.000000
    28  H    0.000001   0.000002  -0.000000   0.000000  -0.000000  -0.000000
    29  H   -0.000000   0.000003   0.000000  -0.000000   0.000000   0.000000
    30  H   -0.000014  -0.000060   0.000004  -0.000011  -0.000004   0.000002
    31  O    0.000000   0.000005   0.000005  -0.001812   0.000036   0.000005
    32  C    0.000001  -0.000001  -0.000001   0.000335  -0.000010   0.000002
    33  H   -0.000000  -0.000000   0.000000   0.000008  -0.000001  -0.000000
    34  H    0.000000   0.000000   0.000000  -0.000036  -0.000002   0.000002
    35  H    0.000000  -0.000000  -0.000000   0.000020  -0.000001  -0.000002
              19         20         21         22         23         24
     1  C   -0.024568   0.091978  -0.107747   0.007105  -0.004624   0.014701
     2  C   -0.000142  -0.038693   0.003759  -0.002111   0.000628  -0.002147
     3  O    0.016831   0.014406  -0.000200   0.000016   0.000008  -0.000204
     4  C   -0.017200  -0.080750  -0.007197   0.003426  -0.001279   0.001994
     5  C    0.000058  -0.000014  -0.000178  -0.000003   0.000000   0.000019
     6  H   -0.000125  -0.000005   0.000012  -0.000000   0.000000  -0.000003
     7  H   -0.000415   0.000040  -0.000003   0.000000  -0.000000   0.000000
     8  H    0.000194   0.000127  -0.000041  -0.000002   0.000001  -0.000000
     9  N   -0.007436   0.003801   0.003469   0.000141   0.000021  -0.000394
    10  H    0.000286   0.002404  -0.000030  -0.000006   0.000004  -0.000067
    11  H   -0.000098   0.002869  -0.000260  -0.000042  -0.000011   0.000106
    12  C    0.008677  -0.017588   0.006637   0.002870   0.000241   0.000083
    13  H   -0.000162  -0.009653   0.001477   0.000658   0.000085  -0.000061
    14  H   -0.000291   0.008440  -0.005714   0.000060  -0.000175   0.000611
    15  H    0.000184   0.000348   0.001669  -0.000119   0.000022  -0.000060
    16  C    0.414770   0.010091  -0.001175   0.000111  -0.000023   0.000045
    17  H   -0.013900  -0.000528   0.000117   0.000015   0.000000   0.000000
    18  H   -0.024763  -0.000298   0.000097   0.000001   0.000000  -0.000003
    19  H    0.491023  -0.001381  -0.000152   0.000000  -0.000001   0.000010
    20  C   -0.001381   5.221454   0.368118  -0.000573  -0.086089   0.016672
    21  C   -0.000152   0.368118   5.192591   0.418205   0.027769  -0.084754
    22  C    0.000000  -0.000573   0.418205   4.998054   0.414531   0.017139
    23  C   -0.000001  -0.086089   0.027769   0.414531   5.024952   0.400944
    24  C    0.000010   0.016672  -0.084754   0.017139   0.400944   5.032700
    25  C    0.000098   0.397010   0.046306  -0.078475   0.025405   0.399471
    26  H   -0.000023  -0.070058   0.446324  -0.038387   0.008796  -0.003311
    27  H    0.000000   0.015030  -0.060611   0.455285  -0.058657   0.011639
    28  H   -0.000000  -0.003960   0.011882  -0.058887   0.456524  -0.058771
    29  H   -0.000000   0.013432  -0.004145   0.011351  -0.057684   0.456058
    30  H   -0.000007  -0.068825   0.011337  -0.003720   0.009817  -0.050344
    31  O    0.000525   0.006560   0.003374  -0.000611   0.000341  -0.001983
    32  C    0.000006  -0.000450   0.000049  -0.000004  -0.000035   0.000324
    33  H   -0.000002  -0.000884   0.000051  -0.000011   0.000002   0.000126
    34  H    0.000123   0.000020  -0.000020  -0.000003   0.000003  -0.000019
    35  H   -0.000031   0.000807   0.000031  -0.000007  -0.000002  -0.000014
              25         26         27         28         29         30
     1  C   -0.138922   0.006823  -0.000314   0.000043  -0.000370   0.001000
     2  C    0.002695   0.001329  -0.000005  -0.000000   0.000005   0.003336
     3  O   -0.002205  -0.000018  -0.000000   0.000000   0.000001   0.000204
     4  C    0.000546  -0.001705   0.000005   0.000002   0.000042  -0.002190
     5  C   -0.000131  -0.000007   0.000000  -0.000000  -0.000000  -0.000026
     6  H    0.000040   0.000000  -0.000000   0.000000   0.000000  -0.000005
     7  H   -0.000017  -0.000000   0.000000  -0.000000   0.000000   0.000001
     8  H    0.000026  -0.000001   0.000000   0.000000  -0.000000   0.000006
     9  N    0.000124   0.000146  -0.000002   0.000000   0.000000   0.000183
    10  H    0.000061   0.000010  -0.000000  -0.000000   0.000002   0.000366
    11  H    0.001357  -0.000019   0.000001  -0.000000  -0.000007   0.000425
    12  C   -0.004933  -0.001804   0.000067  -0.000003   0.000004   0.000206
    13  H   -0.000161  -0.001477  -0.000010   0.000001  -0.000000  -0.000014
    14  H    0.000404  -0.001450  -0.000015   0.000002   0.000003  -0.000060
    15  H    0.000162   0.000467  -0.000004  -0.000000   0.000000   0.000004
    16  C   -0.000259  -0.000473   0.000000   0.000000  -0.000000  -0.000011
    17  H   -0.000022   0.000134  -0.000000  -0.000000   0.000000  -0.000004
    18  H    0.000039   0.000038  -0.000000  -0.000000   0.000000   0.000002
    19  H    0.000098  -0.000023   0.000000  -0.000000  -0.000000  -0.000007
    20  C    0.397010  -0.070058   0.015030  -0.003960   0.013432  -0.068825
    21  C    0.046306   0.446324  -0.060611   0.011882  -0.004145   0.011337
    22  C   -0.078475  -0.038387   0.455285  -0.058887   0.011351  -0.003720
    23  C    0.025405   0.008796  -0.058657   0.456524  -0.057684   0.009817
    24  C    0.399471  -0.003311   0.011639  -0.058771   0.456058  -0.050344
    25  C    5.191927   0.010422  -0.004188   0.011633  -0.059837   0.451900
    26  H    0.010422   0.508221  -0.006631  -0.000088   0.000034  -0.000069
    27  H   -0.004188  -0.006631   0.520008  -0.006879  -0.000089   0.000027
    28  H    0.011633  -0.000088  -0.006879   0.517100  -0.006744  -0.000082
    29  H   -0.059837   0.000034  -0.000089  -0.006744   0.519218  -0.006808
    30  H    0.451900  -0.000069   0.000027  -0.000082  -0.006808   0.516814
    31  O    0.018152   0.000015  -0.000003   0.000001   0.000009  -0.001350
    32  C   -0.001603   0.000018  -0.000000  -0.000000   0.000016  -0.000564
    33  H   -0.000083   0.000000   0.000000  -0.000000   0.000002   0.000050
    34  H    0.000672   0.000002   0.000000   0.000000  -0.000000   0.000019
    35  H   -0.001414  -0.000003   0.000000  -0.000000   0.000001   0.000061
              31         32         33         34         35
     1  C   -0.163570   0.008761   0.002985  -0.000123  -0.002643
     2  C    0.394831  -0.048639   0.002496  -0.013514   0.001157
     3  O   -0.086142   0.001965   0.002041   0.006198   0.006514
     4  C    0.012520  -0.002026   0.000028  -0.000048  -0.000335
     5  C    0.000009  -0.000010  -0.000000   0.000000   0.000001
     6  H    0.000001   0.000001  -0.000000   0.000000  -0.000001
     7  H    0.000001  -0.000001  -0.000000  -0.000000   0.000000
     8  H   -0.000000  -0.000000   0.000000   0.000000   0.000000
     9  N   -0.000297   0.000177  -0.000000   0.000025  -0.000041
    10  H    0.000294  -0.000036  -0.000005  -0.000101   0.000205
    11  H   -0.000029   0.000001  -0.000000  -0.000002   0.000010
    12  C   -0.000129  -0.000017  -0.000001  -0.000010   0.000004
    13  H    0.000000   0.000001  -0.000000   0.000000   0.000000
    14  H    0.000005  -0.000001  -0.000000   0.000000  -0.000000
    15  H    0.000005  -0.000001   0.000000   0.000000  -0.000000
    16  C   -0.001812   0.000335   0.000008  -0.000036   0.000020
    17  H    0.000036  -0.000010  -0.000001  -0.000002  -0.000001
    18  H    0.000005   0.000002  -0.000000   0.000002  -0.000002
    19  H    0.000525   0.000006  -0.000002   0.000123  -0.000031
    20  C    0.006560  -0.000450  -0.000884   0.000020   0.000807
    21  C    0.003374   0.000049   0.000051  -0.000020   0.000031
    22  C   -0.000611  -0.000004  -0.000011  -0.000003  -0.000007
    23  C    0.000341  -0.000035   0.000002   0.000003  -0.000002
    24  C   -0.001983   0.000324   0.000126  -0.000019  -0.000014
    25  C    0.018152  -0.001603  -0.000083   0.000672  -0.001414
    26  H    0.000015   0.000018   0.000000   0.000002  -0.000003
    27  H   -0.000003  -0.000000   0.000000   0.000000   0.000000
    28  H    0.000001  -0.000000  -0.000000   0.000000  -0.000000
    29  H    0.000009   0.000016   0.000002  -0.000000   0.000001
    30  H   -0.001350  -0.000564   0.000050   0.000019   0.000061
    31  O    8.017237   0.221917  -0.031001  -0.034380  -0.044233
    32  C    0.221917   4.772999   0.400034   0.420362   0.416360
    33  H   -0.031001   0.400034   0.534449  -0.024010  -0.021291
    34  H   -0.034380   0.420362  -0.024010   0.564952  -0.042567
    35  H   -0.044233   0.416360  -0.021291  -0.042567   0.566726
 Mulliken charges:
               1
     1  C   -0.260051
     2  C    0.434480
     3  O   -0.552639
     4  C    0.125468
     5  C   -0.297201
     6  H    0.151753
     7  H    0.154049
     8  H    0.151422
     9  N   -0.319016
    10  H    0.270196
    11  H    0.274631
    12  C   -0.376818
    13  H    0.145976
    14  H    0.149663
    15  H    0.142519
    16  C   -0.396563
    17  H    0.136031
    18  H    0.129250
    19  H    0.157912
    20  C    0.206144
    21  C   -0.271048
    22  C   -0.146008
    23  C   -0.161517
    24  C   -0.150508
    25  C   -0.266202
    26  H    0.142743
    27  H    0.135348
    28  H    0.138227
    29  H    0.135506
    30  H    0.138320
    31  O   -0.310298
    32  C   -0.189930
    33  H    0.135017
    34  H    0.122456
    35  H    0.120687
 Sum of Mulliken charges =  -0.00000
 Mulliken charges with hydrogens summed into heavy atoms:
               1
     1  C   -0.260051
     2  C    0.434480
     3  O   -0.552639
     4  C    0.125468
     5  C    0.160024
     9  N    0.225810
    12  C    0.061341
    16  C    0.026630
    20  C    0.206144
    21  C   -0.128305
    22  C   -0.010660
    23  C   -0.023291
    24  C   -0.015002
    25  C   -0.127883
    31  O   -0.310298
    32  C    0.188230
 APT charges:
               1
     1  C   -0.021866
     2  C   -0.126413
     3  O   -0.184001
     4  C    0.325380
     5  C   -1.507374
     6  H    0.617678
     7  H    0.505394
     8  H    0.430618
     9  N   -0.267769
    10  H    0.356345
    11  H    0.301414
    12  C   -1.305437
    13  H    0.395579
    14  H    0.224203
    15  H    0.586005
    16  C   -1.379766
    17  H    0.392233
    18  H    0.568649
    19  H    0.320091
    20  C   -0.302646
    21  C   -0.579821
    22  C   -0.644420
    23  C   -0.660045
    24  C   -0.568925
    25  C   -0.526498
    26  H    0.375387
    27  H    0.781705
    28  H    0.947338
    29  H    0.679407
    30  H    0.257981
    31  O   -0.134018
    32  C   -1.268239
    33  H    0.603780
    34  H    0.503574
    35  H    0.304477
 Sum of APT charges =  -0.00000
 APT charges with hydrogens summed into heavy atoms:
               1
     1  C   -0.021866
     2  C   -0.126413
     3  O   -0.184001
     4  C    0.325380
     5  C    0.046316
     9  N    0.389990
    12  C   -0.099650
    16  C   -0.098793
    20  C   -0.302646
    21  C   -0.204434
    22  C    0.137285
    23  C    0.287293
    24  C    0.110481
    25  C   -0.268517
    31  O   -0.134018
    32  C    0.143592
 Electronic spatial extent (au):  <R**2>=           3837.3180
 Charge=             -0.0000 electrons
 Dipole moment (field-independent basis, Debye):
    X=             -3.0749    Y=             -4.5631    Z=              3.3064  Tot=              6.4194
 Quadrupole moment (field-independent basis, Debye-Ang):
   XX=            -90.7632   YY=            -92.7047   ZZ=            -89.5971
   XY=             10.3108   XZ=             -3.6029   YZ=              1.9627
 Traceless Quadrupole moment (field-independent basis, Debye-Ang):
   XX=              0.2584   YY=             -1.6830   ZZ=              1.4246
   XY=             10.3108   XZ=             -3.6029   YZ=              1.9627
 Octapole moment (field-independent basis, Debye-Ang**2):
  XXX=            -34.2798  YYY=             29.5137  ZZZ=             15.7794  XYY=             -3.0291
  XXY=            -36.5544  XXZ=             22.7970  XZZ=            -14.5884  YZZ=             -3.7014
  YYZ=              2.1324  XYZ=             14.4633
 Hexadecapole moment (field-independent basis, Debye-Ang**3):
 XXXX=          -2612.3765 YYYY=          -1595.2816 ZZZZ=           -605.7926 XXXY=             28.0732
 XXXZ=            -30.0271 YYYX=             79.7602 YYYZ=             -6.7328 ZZZX=            -28.2956
 ZZZY=              3.6216 XXYY=           -752.1777 XXZZ=           -526.6524 YYZZ=           -381.6647
 XXYZ=             -5.5855 YYXZ=            -24.1349 ZZXY=             11.7860
 N-N= 1.153322016638D+03 E-N=-3.966391291358D+03  KE= 7.085622028056D+02
  Exact polarizability:   0.000   0.000   0.000   0.000   0.000   0.000
 Approx polarizability: 209.960  -7.902 181.079  -1.350  13.666 182.569
   1 Symmetry operations used in ECPInt.
 ECPInt:  NShTT=   31878 NPrTT=   94804 LenC2=   29542 LenP2D=   64858.
 LDataN:  DoStor=T MaxTD1= 8 Len=  415
 D2PCM: PCM CHGder 2nd derivatives, FixD1E=F FixD2E=F DoIter=F DoCFld=F I1PDM=0
 Calling FoFJK, ICntrl=    100147 FMM=F ISym2X=0 I1Cent= 0 IOpClX= 0 NMat=1 NMatS=1 NMatT=0.
 ***** Axes restored to original set *****
 -------------------------------------------------------------------
 Center     Atomic                   Forces (Hartrees/Bohr)
 Number     Number              X              Y              Z
 -------------------------------------------------------------------
      1        6          -0.001040072   -0.000410022    0.002136576
      2        6          -0.000077789   -0.000319802   -0.000961338
      3        8           0.000041367    0.001113355    0.000023282
      4        6           0.000064958    0.000334376    0.000724185
      5        6          -0.000162511    0.000160685   -0.000084633
      6        1           0.000087755    0.000006208   -0.000040738
      7        1           0.000019863    0.000019679    0.000007366
      8        1           0.000100055    0.000032544   -0.000045520
      9        7           0.000177876    0.000432868   -0.000709342
     10        1          -0.000425828   -0.000467669    0.000188033
     11        1           0.000032695    0.000145121   -0.000093703
     12        6           0.000026290    0.000177580    0.000862728
     13        1          -0.000136975    0.000132744   -0.000462979
     14        1          -0.000066158   -0.000255014   -0.000352190
[...]
 3,-0.00051272,-0.00037410,0.00020750,-0.00004122,-0.00006837,0.0000289
 1,0.00002157,0.00001275,-0.00001955,0.00002061,0.00001868,-0.00000571,
 0.00001068,0.00001228,-0.00000047,0.00011664,0.00008053,-0.00022453,-0
 .00003984,0.00002430,-0.00000543,-0.00032916,-0.00017501,0.00012353,-0
 .00001627,-0.00001785,0.00002572,0.00003071,0.00005077,0.00002240,0.00
 001574,0.00001813,-0.00004620,-0.00002807,0.00001529,-0.00000567,0.000
 04360,0.00002467,-0.00003199,0.00000880,0.00000027,-0.00000142,0.00002
 842,0.00000237,-0.00001028,0.00000182,0.00000261,-0.00000334,0.0180276
 8,-0.01204944,-0.01681738,-0.00378984,-0.00159536,-0.00388456,-0.00090
 704,0.00051072,-0.00029974,-0.00204623,-0.00095371,0.00175755,-0.00529
 300,0.00292836,0.00749728,0.11051869,-0.08464746,-0.20932359,0.0008660
 2,-0.00060589,-0.00104216,0.00023785,0.00022435,-0.00006423,-0.0002647
 9,0.00010769,0.00020022,0.00085875,0.00101054,0.00049984,-0.11834160,0
 .09391868,0.21981835,-0.00004818,-0.02782026,-0.00457739,-0.16203783,-
 0.02320958,0.00903531,-0.10183255,-0.02673621,0.01236521,0.01184952,0.
 01005293,-0.00527167,0.00088438,0.00107597,0.00168560,-0.00083054,-0.0
 0051451,0.00035634,-0.00005142,-0.00001237,-0.00011795,-0.00015828,-0.
 00022142,-0.00003680,-0.00499774,-0.00314494,0.00490799,0.00065258,0.0
 0153381,-0.00228143,-0.00001654,-0.00015213,-0.00036087,0.00009638,0.0
 0023907,-0.00029408,-0.00006349,-0.00031590,0.00002068,-0.00000060,-0.
 00016878,0.00018664,-0.00009430,-0.00021617,0.00023558,-0.00142136,-0.
 00076283,0.00035801,0.00002085,-0.00030651,-0.00011005,-0.00053990,-0.
 00044835,-0.00005050,0.00086000,0.00042427,0.00085215,-0.00362586,0.00
 289744,0.00152611,0.00177930,-0.00033037,-0.00046758,-0.00050656,-0.00
 012574,-0.00033687,0.00000371,-0.00004248,0.00076377,0.00123792,0.0001
 2858,0.00014956,0.00098575,0.00221499,-0.00069124,-0.00013753,0.000050
 26,0.00014373,0.00008926,-0.00004036,-0.00001429,0.00000714,0.00000207
 ,0.00003356,0.00012725,-0.00006305,0.00004675,-0.00026955,-0.00023499,
 0.00035370,0.34856148,-0.04661947,-0.06426300,-0.00600145,-0.05576531,
 -0.15348790,-0.00446872,-0.01982244,0.02155597,0.00249931,0.02332516,0
 .00544631,-0.00817937,0.00092423,0.00193839,0.00282009,-0.00133142,-0.
 00082129,0.00055709,-0.00008986,-0.00007409,-0.00016804,-0.00007524,-0
 .00021965,-0.00013600,-0.00793385,-0.00350444,0.00743776,0.00072880,-0
 .00010994,-0.00134663,0.00005641,0.00004044,-0.00079284,-0.00246722,-0
 .00104065,-0.00049509,-0.00001003,-0.00045428,0.00002144,0.00000789,-0
 .00006079,0.00023254,-0.00013088,-0.00127196,0.00025827,-0.00106540,-0
 .00067048,0.00158201,-0.00017105,-0.00011557,-0.00004019,-0.00111723,-
 0.00034128,-0.00009774,0.00028260,0.00035365,0.00024507,-0.00594236,-0
 .00213976,0.00033272,0.00011003,0.00013860,0.00107479,0.00079804,-0.00
 027333,0.00061620,0.00112043,-0.00050601,-0.00098610,-0.00152393,0.000
 64268,0.00055108,0.00329761,-0.00183624,0.00068597,-0.00022062,0.00011
 048,0.00006290,0.00025581,-0.00016938,-0.00008331,0.00016157,-0.000027
 14,0.00000995,0.00020758,-0.00015373,0.00024978,-0.00009547,0.00016266
 ,0.00003704,0.04171849,0.49541383,-0.00215762,-0.00300573,0.01232136,0
 .00366502,-0.00651126,-0.06389843,0.01170307,-0.00003526,0.02338628,-0
 .00068097,-0.00149120,0.00337690,0.00005165,-0.00011040,0.00010561,-0.
 00002932,-0.00003521,-0.00000578,-0.00001311,0.00002126,-0.00000821,-0
 .00000444,-0.00003410,0.00001833,-0.00050700,-0.00068257,0.00002312,0.
 00023202,0.00023812,-0.00031160,0.00011609,0.00003551,0.00000345,0.000
 12189,-0.00011242,-0.00080293,-0.00000598,-0.00020150,-0.00001092,-0.0
 0001232,0.00011187,0.00001389,0.00001136,-0.00002596,-0.00008829,0.000
 22434,0.00046791,0.00021474,0.00001758,-0.00015714,0.00001766,-0.00007
 480,0.00028309,-0.00003036,-0.00036506,-0.00010536,-0.00017062,-0.0014
 6145,0.00006187,-0.00041401,0.00053097,-0.00068291,-0.00012827,-0.0005
 6411,0.00007574,-0.00020160,0.00011751,0.00000550,0.00052382,0.0007130
 2,0.00016111,-0.00021983,-0.00011120,0.00121828,-0.00045668,0.00000852
 ,0.00004437,0.00000464,0.00002841,0.00002117,-0.00001288,-0.00002659,-
 0.00002548,0.00002626,0.00001552,0.00002534,-0.00000510,-0.00032310,-0
 .00008537,0.00025848,-0.02776383,0.04725383,0.08165877,-0.00487604,-0.
 00230124,0.00020572,0.01134837,-0.03532407,-0.00664656,-0.00214737,-0.
 00223143,-0.00071136,0.00123681,-0.00095115,0.00007095,0.00006158,0.00
 008656,0.00012817,-0.00006236,-0.00003974,0.00002682,-0.00000452,-0.00
 000387,-0.00001044,-0.00000550,-0.00001416,-0.00000739,-0.00030632,-0.
 00018097,0.00020591,0.00007756,0.00000186,-0.00010020,-0.00000096,0.00
 000810,-0.00004586,-0.00034746,-0.00015633,-0.00007957,0.00000747,-0.0
 0003219,-0.00001638,0.00001730,0.00000499,0.00003132,0.00002652,-0.000
 14587,-0.00000493,0.00000158,0.00000763,0.00013295,-0.00000064,-0.0000
 0367,-0.00000571,-0.00006065,-0.00003005,-0.00001371,0.00003866,0.0000
 1525,0.00000619,-0.00040231,0.00027066,-0.00015863,0.00038023,-0.00007
 185,-0.00009408,-0.00007031,-0.00003666,-0.00009836,-0.00003691,0.0000
 1860,0.00010817,0.00014683,-0.00001671,0.00000718,0.00011228,0.0001168
 4,0.00004972,-0.00000852,0.00000369,0.00001384,0.00001249,-0.00000204,
 -0.00000004,0.00000202,0.00000421,0.00000148,0.00001029,-0.00000833,0.
 00000314,-0.00001354,-0.00002770,0.00000082,-0.09899060,0.04783061,0.0
 1207942,0.61121044,0.00154824,0.01063627,0.00101270,-0.02680276,-0.058
 30585,-0.00418671,0.01514079,0.00014802,-0.00126152,-0.00585062,-0.003
 88984,0.00285687,-0.00038375,-0.00061311,-0.00088895,0.00043501,0.0002
 6727,-0.00018774,0.00003279,0.00001901,0.00005641,0.00005383,0.0000936
 3,0.00003137,0.00263231,0.00141191,-0.00252033,-0.00032824,-0.00034439
 ,0.00073283,-0.00002167,0.00000683,0.00023615,0.00011964,0.00008921,0.
 00015083,0.00000617,0.00014944,-0.00002888,-0.00000473,0.00004247,-0.0
 0005910,0.00008579,0.00018644,-0.00011734,0.00047947,0.00040934,-0.000
 38669,0.00004084,0.00007596,0.00003803,0.00031522,0.00015245,0.0000242
 4,-0.00024672,-0.00019603,-0.00025737,0.00155375,-0.00021680,-0.000277
 53,-0.00004813,0.00000096,-0.00038052,-0.00027422,0.00006662,-0.000152
 19,-0.00042448,0.00015982,0.00030638,0.00049609,-0.00015955,-0.0001334
 0,-0.00069113,0.00060088,-0.00020777,0.00007885,-0.00001078,0.00000194
 ,-0.00010118,0.00006142,0.00003890,-0.00007487,0.00002336,0.00000049,-
 0.00009185,0.00004574,-0.00009995,0.00003596,-0.00006669,0.00015712,0.
 02363076,-0.20534551,-0.02213108,0.03440001,0.47657165,0.00087972,0.00
 045195,0.00365476,-0.00545313,-0.00199462,-0.00227628,0.00266392,0.000
 34265,-0.00451662,-0.00060296,0.00015626,0.00164236,-0.00004270,0.0000
 0517,0.00004618,-0.00000048,-0.00000673,-0.00000767,0.00000122,0.00000
 438,0.00000223,0.00001337,0.00000264,0.00000109,-0.00016070,-0.0001302
 3,0.00004760,-0.00004637,-0.00013863,0.00009905,-0.00000317,-0.0000065
 2,0.00002644,0.00034241,0.00007223,-0.00032376,-0.00000216,-0.00008771
 ,-0.00002075,-0.00003896,0.00002131,-0.00000484,0.00001283,0.00010896,
 -0.00005939,0.00000078,0.00014596,-0.00001648,-0.00000494,-0.00002091,
 0.00001026,0.00004358,0.00005031,0.00001390,-0.00008842,-0.00002808,-0
 .00004819,0.00023862,-0.00005952,-0.00019531,0.00020021,0.00000173,-0.
 00014386,-0.00020042,0.00003375,-0.00014256,-0.00013097,0.00008482,0.0
 0023208,0.00031915,-0.00010993,-0.00005167,-0.00022892,0.00021350,-0.0
 0014551,0.00000646,-0.00000677,0.00001597,-0.00001677,0.00001215,0.000
 00768,-0.00001591,0.00000393,0.00000456,-0.00000978,0.00000909,-0.0000
 2249,0.00000492,-0.00003189,0.00004304,0.00817965,-0.02627686,-0.06776
 880,0.00129886,-0.02055367,0.58011245,0.00019882,-0.00048124,-0.000108
 97,-0.00094779,0.00360152,0.00047888,0.00045993,-0.00256252,-0.0002705
 5,0.00034451,0.00031861,-0.00016959,0.00003577,0.00003951,0.00004444,-
 0.00002697,-0.00001498,0.00001313,-0.00000256,-0.00000132,-0.00000373,
 -0.00000674,-0.00000827,-0.00000150,-0.00015025,-0.00008787,0.00016792
 ,0.00003593,0.00005394,-0.00008394,-0.00000277,-0.00000571,-0.00001625
 ,0.00000569,0.00000805,-0.00001087,0.00000020,-0.00001218,0.00000159,0
 .00000049,-0.00000454,0.00000389,-0.00000496,-0.00000681,0.00000803,-0
 .00003692,-0.00002593,0.00001511,-0.00000226,-0.00001287,-0.00000752,-
 0.00001707,-0.00001692,-0.00000286,0.00003674,0.00000687,0.00003110,-0
 .00008641,-0.00004096,0.00001170,0.00000300,0.00000345,0.00004005,0.00
 002147,-0.00000433,0.00000632,0.00002790,-0.00000980,-0.00002038,-0.00
 003312,0.00001123,0.00001236,0.00004336,-0.00004677,-0.00000196,-0.000
 00580,0.00000082,-0.00000027,0.00000773,-0.00000500,-0.00000195,0.0000
 0484,-0.00000192,0.00000016,0.00000730,-0.00000270,0.00000618,-0.00000
 417,0.00000641,-0.00000810,0.01000545,0.00592781,0.00008539,-0.2756492
 8,-0.11179257,0.00531413,0.28944233,-0.00195113,-0.00163731,-0.0002275
 7,0.00717164,-0.00257221,-0.00163785,-0.00081300,0.00205994,0.00032281
 ,0.00116401,0.00002028,-0.00035385,0.00004780,0.00009428,0.00012906,-0
 .00006432,-0.00003911,0.00002790,-0.00000495,-0.00000405,-0.00000826,-
 0.00000396,-0.00001128,-0.00000721,-0.00036814,-0.00015410,0.00034946,
 0.00004266,0.00000160,-0.00006133,0.00000427,0.00000694,-0.00004353,-0
 .00016997,-0.00007005,-0.00002879,0.00000136,-0.00002527,-0.00000249,0
 .00000446,-0.00000131,0.00001425,0.00000062,-0.00008169,0.00001097,-0.
 00002226,-0.00002589,0.00009115,-0.00001061,-0.00000523,-0.00000422,-0
 .00005816,-0.00001533,-0.00000584,0.00001367,0.00002784,0.00001385,-0.
 00037411,0.00014565,-0.00003529,0.00007931,-0.00002535,0.00004116,0.00
 001666,-0.00000902,-0.00000119,0.00005547,-0.00001807,-0.00001180,-0.0
 0002373,0.00001974,0.00001697,0.00011148,-0.00001499,0.00001514,-0.000
 01058,0.00000377,0.00000218,0.00001682,-0.00000785,-0.00000565,0.00000
 943,-0.00000296,0.00000101,0.00001480,-0.00000595,0.00001370,-0.000014
 13,0.00000519,-0.00001656,-0.03443190,-0.03405838,-0.00107177,-0.09973
 382,-0.09394882,0.00344033,0.11687404,0.12028958,-0.00025659,-0.000225
 64,0.00014465,0.00125937,-0.00064744,0.00004290,-0.00017132,0.00050985
 ,0.00065242,0.00011394,-0.00004888,0.00002515,0.00000475,0.00000955,0.
 00001191,-0.00000642,-0.00000393,0.00000291,-0.00000092,-0.00000037,-0
 .00000068,-0.00000051,-0.00000122,-0.00000056,-0.00003901,-0.00001686,
 0.00003529,0.00000443,-0.00000049,-0.00000641,0.00000116,-0.00000007,-
 0.00000589,-0.00001164,-0.00000938,-0.00002871,0.00000071,-0.00000900,
 -0.00000005,0.00000011,0.00000331,0.00000176,-0.00000071,-0.00000646,-
 0.00000205,0.00000012,0.00000383,0.00001582,-0.00000099,0.00000162,0.0
 0000127,-0.00000724,0.00000187,-0.00000038,-0.00000688,0.00000682,-0.0
 0000241,-0.00005375,0.00003182,-0.00003528,0.00001049,-0.00000972,-0.0
 0000229,0.00000548,-0.00000057,0.00000235,0.00000694,-0.00000588,-0.00
 000469,-0.00001090,0.00000638,0.00000123,0.00001615,-0.00000718,0.0000
 0765,-0.00000046,0.00000175,0.00000013,0.00000128,-0.00000147,-0.00000
 094,0.00000102,-0.00000017,-0.00000014,0.00000052,-0.00000060,0.000000
 40,0.00000100,-0.00000245,-0.00000042,-0.00580276,-0.00569463,0.000636
 99,0.00698230,0.00471335,-0.05255722,-0.00642513,-0.00069415,0.0471514
 5,0.00018237,0.00031226,-0.00026670,-0.00222282,-0.00245716,0.00075283
 ,0.00121283,-0.00073429,0.00018436,-0.00021581,-0.00015633,0.00007810,
 -0.00002821,-0.00001694,-0.00004633,0.00002072,0.00001403,-0.00000850,
 0.00000131,-0.00000053,0.00000360,0.00000426,0.00000790,-0.00000004,0.
 00012280,0.00012137,-0.00007775,-0.00004182,-0.00005228,0.00007780,-0.
 00000597,-0.00000240,0.00000377,0.00003084,0.00001807,0.00001496,-0.00
 000165,0.00000441,0.00000067,-0.00000138,-0.00000247,-0.00000113,0.000
 00270,0.00001560,-0.00000211,0.00003617,0.00000857,-0.00001261,-0.0000
 0070,0.00001779,0.00000330,0.00001788,0.00000190,0.00000391,-0.0000125
 3,-0.00000701,-0.00001523,0.00013337,0.00000777,-0.00003085,0.00002521
 ,0.00000131,-0.00004526,-0.00003590,0.00000020,-0.00002400,-0.00004415
 ,0.00002284,0.00003939,0.00006109,-0.00002209,-0.00000791,-0.00007076,
 0.00006661,-0.00002115,0.00000558,0.00000228,0.00000481,-0.00000962,0.
 00000353,0.00000407,-0.00000656,0.00000217,0.00000065,-0.00000787,0.00
 000194,-0.00000848,0.00000040,-0.00000887,0.00001653,-0.00049367,0.009
 80291,-0.00049971,-0.14256800,0.05406917,-0.11491398,-0.01403976,0.009
 45191,-0.02090963,0.14919155,-0.00085354,-0.00201895,-0.00095908,0.007
 90571,0.00449757,0.00083128,-0.00255936,0.00049886,0.00046511,0.001377
 67,0.00065789,-0.00088326,0.00004693,0.00011649,0.00016399,-0.00007873
 ,-0.00004784,0.00003360,-0.00000522,-0.00000542,-0.00000953,-0.0000034
 4,-0.00000989,-0.00000835,-0.00047217,-0.00015508,0.00047863,0.0000294
 7,-0.00002487,-0.00004450,0.00000759,0.00000874,-0.00005067,-0.0001239
 4,-0.00004122,0.00003475,-0.00000267,-0.00001187,0.00001203,0.00000576
 ,-0.00000711,0.00000946,-0.00002021,-0.00006574,0.00003104,-0.00008018
 ,-0.00008085,0.00008809,-0.00001313,-0.00000201,-0.00000426,-0.0000733
 8,-0.00002360,-0.00000863,0.00002286,0.00002154,0.00001905,-0.00040294
 ,0.00012969,0.00006147,-0.00009373,0.00004166,0.00012206,0.00011096,-0
 .00002817,0.00007785,0.00011023,-0.00005409,-0.00012775,-0.00018236,0.
 00005178,0.00003708,0.00017198,-0.00015245,0.00005666,-0.00001387,0.00
 000539,-0.00000668,0.00002216,-0.00001446,-0.00000863,0.00001781,-0.00
 000495,-0.00000162,0.00001860,-0.00000902,0.00002316,-0.00000641,0.000
 02609,-0.00004198,0.02005692,-0.03265948,0.02195103,0.04964956,-0.0772
 2305,0.06176009,-0.00727320,0.00694407,-0.01057629,-0.06489272,0.09633
 414,0.00022384,0.00002417,-0.00046876,-0.00225262,-0.00005423,0.001002
 85,0.00044426,-0.00171183,-0.00001345,0.00000451,0.00002230,-0.0000722
 5,0.00000851,0.00000319,-0.00001688,0.00000122,0.00000350,0.00000194,-
 0.00000025,-0.00000096,0.00000047,-0.00000344,-0.00000037,-0.00000031,
 0.00003598,0.00002297,0.00001426,-0.00000230,0.00002221,-0.00002600,-0
 .00000780,-0.00000846,-0.00000350,-0.00000471,0.00000670,0.00002235,0.
 00000024,0.00000382,0.00000169,0.00000236,-0.00000370,0.00000099,-0.00
 000257,-0.00000134,0.00000339,-0.00000317,-0.00001055,-0.00001424,-0.0
 0000085,0.00000104,-0.00000189,0.00000153,-0.00001464,0.00000038,0.000
 02309,-0.00000075,0.00001330,0.00002885,0.00000303,-0.00002522,0.00001
 247,-0.00000772,0.00000737,0.00000118,-0.00000306,-0.00000108,0.000001
 25,0.00000008,-0.00000264,-0.00000591,-0.00000361,0.00000588,-0.000004
 80,-0.00001260,-0.00000086,0.00000034,0.00000254,0.00000091,0.00000039
 ,-0.00000109,0.00000062,0.00000033,0.00000152,-0.00000004,0.00000020,-
 0.00000085,0.00000048,0.00000249,-0.00000131,0.00000367,0.00660006,-0.
 00082557,0.01117326,-0.11460918,0.06730595,-0.19415080,0.00216549,-0.0
 0139529,0.00209008,0.12489214,-0.07233907,0.20001861,0.00030211,0.0004
 1486,0.00029076,-0.00132041,-0.00223453,-0.00097294,0.00026900,-0.0004
 5891,-0.00019032,-0.00032246,-0.00014977,0.00009039,-0.00003014,-0.000
 04137,-0.00004389,0.00002505,0.00001388,-0.00001209,0.00000234,0.00000
 207,0.00000335,0.00000516,0.00000655,0.00000241,0.00012969,0.00007735,
 -0.00012780,-0.00002292,-0.00003811,0.00005891,0.00000165,0.00000396,0
 .00002279,0.00003116,0.00001094,-0.00000824,-0.00000261,0.00000452,-0.
 00000059,-0.00000140,0.00000257,-0.00000352,0.00000528,0.00001823,-0.0
 0000401,0.00002813,0.00004554,-0.00002756,-0.00000042,-0.00000540,0.00
 000568,0.00001586,0.00002993,0.00000474,-0.00005011,-0.00002074,-0.000
 03116,0.00009785,-0.00005756,0.00006001,-0.00003258,0.00001580,-0.0000
 3623,-0.00000174,-0.00000163,0.00000675,-0.00002341,0.00000297,-0.0000
 0222,0.00000852,-0.00000108,-0.00000359,-0.00001059,0.00003515,0.00001
 344,0.00000402,-0.00000102,-0.00000081,-0.00000821,0.00000481,0.000002
 12,-0.00000462,0.00000159,-0.00000098,-0.00000787,0.00000111,-0.000006
 16,0.00000533,-0.00000440,0.00000520,-0.00104447,0.00782580,0.00487885
 ,-0.09913917,0.01198223,0.10244091,-0.00966465,0.00297438,0.02529511,0
 .00875808,-0.00240298,-0.01755314,0.10199852,-0.00067866,-0.00228655,0
 .00052777,0.00663667,0.00485936,-0.00183614,-0.00232234,-0.00015104,0.
 00033242,0.00135839,0.00081037,-0.00037885,0.00005544,0.00013252,0.000
 21187,-0.00009483,-0.00006046,0.00003767,-0.00000596,-0.00000298,-0.00
 001091,-0.00000341,-0.00001491,-0.00000741,-0.00062521,-0.00029072,0.0
 0057980,0.00004496,-0.00002381,-0.00009066,0.00001183,0.00000228,-0.00
 004703,-0.00001067,-0.00002138,-0.00009463,-0.00000323,-0.00004890,0.0
 0000082,-0.00001070,-0.00000182,0.00001052,-0.00001472,-0.00003563,0.0
 0001209,-0.00007864,-0.00001168,0.00008694,-0.00001763,-0.00001974,0.0
 0000128,-0.00006911,0.00000167,-0.00000096,-0.00002213,0.00001407,0.00
 000447,-0.00042628,0.00013438,0.00003439,0.00002330,0.00000873,0.00005
 565,0.00001767,-0.00000700,0.00001096,0.00006041,-0.00002108,-0.000017
 64,-0.00003351,0.00001283,0.00002969,0.00011814,-0.00002245,-0.0000306
 6,-0.00001452,0.00000262,0.00000390,0.00001791,-0.00000921,-0.00000659
 ,0.00001123,-0.00000388,0.00000175,0.00001824,-0.00000652,0.00001525,-
 0.00001718,0.00001225,-0.00001110,0.01527330,-0.02219871,-0.03547128,0
 .00889328,-0.05089826,-0.01746915,-0.00443385,0.00311533,0.01267266,-0
 .00560143,0.00330620,0.00897399,-0.01805676,0.06372410,-0.00069517,-0.
 00083672,-0.00039248,0.00479515,0.00167610,0.00034280,-0.00125331,0.00
 194931,0.00075112,0.00057244,0.00024524,-0.00021165,0.00001876,0.00006
 190,0.00008225,-0.00003687,-0.00002238,0.00001559,-0.00000247,-0.00000
 315,-0.00000394,-0.00000037,-0.00000346,-0.00000456,-0.00022249,-0.000
 09691,0.00019929,-0.00000182,-0.00003009,-0.00000101,-0.00000150,0.000
 00127,-0.00002183,-0.00003891,-0.00001413,-0.00000289,-0.00000031,-0.0
 0000861,0.00000319,-0.00000014,-0.00000135,0.00000468,-0.00000630,-0.0
 0002226,0.00000712,-0.00001235,-0.00003953,0.00005376,-0.00000662,0.00
 001461,0.00000537,-0.00002925,-0.00000979,0.00000102,-0.00000184,0.000
 02284,-0.00000227,-0.00011344,0.00011566,-0.00004379,-0.00000033,0.000
 01031,0.00002763,0.00002186,-0.00000820,0.00001257,0.00002654,-0.00000
 728,-0.00002423,-0.00004251,0.00000158,0.00001401,0.00000521,-0.000025
 58,-0.00001349,-0.00000563,0.00000293,0.00000135,0.00000668,-0.0000056
 2,-0.00000269,0.00000614,-0.00000060,-0.00000010,0.00000562,-0.0000064
 1,0.00000877,0.00000489,0.00000280,-0.00000841,0.00037687,-0.01093531,
 0.00077075,0.10124946,-0.02383282,-0.26350745,-0.00127231,0.00112269,0
 .00182378,0.01081050,-0.00118616,-0.01956456,-0.11415616,0.03186913,0.
 27968030\\0.00000078,-0.00000237,-0.00000251,-0.00000159,0.00000089,-0
 .00000082,-0.00000176,-0.00000183,0.00000154,-0.00000066,-0.00000013,0
 .00000256,0.00000140,-0.00000243,0.00000137,0.00000179,-0.00000300,0.0
 0000119,0.00000145,-0.00000373,0.00000122,0.00000286,-0.00000242,0.000
 00145,0.00000152,-0.00000112,-0.00000008,0.00000001,-0.00000248,0.0000
 0207,0.00000120,-0.00000133,0.00000020,0.00000236,-0.00000041,-0.00000
 066,0.00000200,0.00000014,-0.00000009,0.00000200,-0.00000027,0.0000000
 5,0.00000223,-0.00000152,-0.00000040,-0.00000050,-0.00000219,0.0000013
 9,-0.00000053,-0.00000127,0.00000074,0.00000044,-0.00000262,0.00000108
 ,-0.00000129,-0.00000225,0.00000123,-0.00000081,0.00000252,0.00000080,
 -0.00000009,0.00000200,-0.00000138,0.00000053,0.00000300,-0.00000125,0
 .00000103,0.00000326,-0.00000187,0.00000057,0.00000314,-0.00000101,-0.
 00000014,0.00000158,-0.00000106,-0.00000059,0.00000148,-0.00000095,0.0
 0000058,0.00000363,-0.00000177,0.00000119,0.00000437,-0.00000206,0.000
 00108,0.00000311,-0.00000151,0.00000017,0.00000117,-0.00000012,-0.0000
 0230,-0.00000047,0.00000023,-0.00000367,0.00000048,0.00000012,-0.00000
 394,0.00000125,-0.00000021,-0.00000420,-0.00000016,0.00000028,-0.00000
 312,-0.00000005,0.00000023\\\@


 MUD THROWN IS GROUND LOST -- FROM A TEA BAG
 Job cpu time:       0 days 22 hours 56 minutes  1.3 seconds.
 Elapsed time:       0 days  1 hours 26 minutes  4.4 seconds.
 File lengths (MBytes):  RWF=   1214 Int=      0 D2E=      0 Chk=     45 Scr=      1
 Normal termination of Gaussian 16 at Sun Feb 14 14:36:55 2021.
