 Entering Gaussian System, Link 0=g16
 Initial command:
 /apps/gaussian/16/A.03/g16/l1.exe "/beegfs/scratch/user/q/tla25/Gau-40127.inp" -scrdir="/beegfs/scratch/user/q/tla25/"
 Entering Link 1 = /apps/gaussian/16/A.03/g16/l1.exe PID=     40128.
  
 Copyright (c) 1988,1990,1992,1993,1995,1998,2003,2009,2016,
            Gaussian, Inc.  All Rights Reserved.
  
 This is part of the Gaussian(R) 16 program.  It is based on
 the Gaussian(R) 09 system (copyright 2009, Gaussian, Inc.),
 the Gaussian(R) 03 system (copyright 2003, Gaussian, Inc.),
 the Gaussian(R) 98 system (copyright 1998, Gaussian, Inc.),
 the Gaussian(R) 94 system (copyright 1995, Gaussian, Inc.),
 the Gaussian 92(TM) system (copyright 1992, Gaussian, Inc.),
 the Gaussian 90(TM) system (copyright 1990, Gaussian, Inc.),
 the Gaussian 88(TM) system (copyright 1988, Gaussian, Inc.),
 the Gaussian 86(TM) system (copyright 1986, Carnegie Mellon
 University), and the Gaussian 82(TM) system (copyright 1983,
 Carnegie Mellon University). Gaussian is a federally registered
 trademark of Gaussian, Inc.
  
 This software contains proprietary and confidential information,
 including trade secrets, belonging to Gaussian, Inc.
  
 This software is provided under written license and may be
 used, copied, transmitted, or stored only in accord with that
 written license.
  
 The following legend is applicable only to US Government
 contracts under FAR:
  
                    RESTRICTED RIGHTS LEGEND
  
 Use, reproduction and disclosure by the US Government is
 subject to restrictions as set forth in subparagraphs (a)
 and (c) of the Commercial Computer Software - Restricted
 Rights clause in FAR 52.227-19.
  
 Gaussian, Inc.
 340 Quinnipiac St., Bldg. 40, Wallingford CT 06492
  
  
 ---------------------------------------------------------------
 Warning -- This program may not be used in any manner that
 competes with the business of Gaussian, Inc. or will provide
 assistance to any competitor of Gaussian, Inc.  The licensee
 of this program is prohibited from giving any competitor of
 Gaussian, Inc. access to this program.  By using this program,
 the user acknowledges that Gaussian, Inc. is engaged in the
 business of creating and licensing software in the field of
 computational chemistry and represents and warrants to the
 licensee that it is not a competitor of Gaussian, Inc. and that
 it will not use this program in any manner prohibited above.
 ---------------------------------------------------------------
  

 Cite this work as:
 Gaussian 16, Revision A.03,
 M. J. Frisch, G. W. Trucks, H. B. Schlegel, G. E. Scuseria, 
 M. A. Robb, J. R. Cheeseman, G. Scalmani, V. Barone, 
 G. A. Petersson, H. Nakatsuji, X. Li, M. Caricato, A. V. Marenich, 
 J. Bloino, B. G. Janesko, R. Gomperts, B. Mennucci, H. P. Hratchian, 
 J. V. Ortiz, A. F. Izmaylov, J. L. Sonnenberg, D. Williams-Young, 
 F. Ding, F. Lipparini, F. Egidi, J. Goings, B. Peng, A. Petrone, 
 T. Henderson, D. Ranasinghe, V. G. Zakrzewski, J. Gao, N. Rega, 
 G. Zheng, W. Liang, M. Hada, M. Ehara, K. Toyota, R. Fukuda, 
 J. Hasegawa, M. Ishida, T. Nakajima, Y. Honda, O. Kitao, H. Nakai, 
 T. Vreven, K. Throssell, J. A. Montgomery, Jr., J. E. Peralta, 
 F. Ogliaro, M. J. Bearpark, J. J. Heyd, E. N. Brothers, K. N. Kudin, 
 V. N. Staroverov, T. A. Keith, R. Kobayashi, J. Normand, 
 K. Raghavachari, A. P. Rendell, J. C. Burant, S. S. Iyengar, 
 J. Tomasi, M. Cossi, J. M. Millam, M. Klene, C. Adamo, R. Cammi, 
 J. W. Ochterski, R. L. Martin, K. Morokuma, O. Farkas, 
 J. B. Foresman, and D. J. Fox, Gaussian, Inc., Wallingford CT, 2016.
 
 ******************************************
 Gaussian 16:  ES64L-G16RevA.03 25-Dec-2016
                26-Mar-2021 
 ******************************************
 %nprocshared=16
 Will use up to   16 processors via shared memory.
 %mem=48GB
 ----------------------------------------------------------------------
 # wB97XD def2tzvp, opt=(ts, noeigen, calcfc, maxcycles=70, maxstep=3),
  freq=noraman, scrf=(iefpcm, solvent=water)
 ----------------------------------------------------------------------
 1/5=1,6=70,8=3,10=4,11=1,18=20,26=3,38=1/1,3;
 2/9=110,12=2,17=6,18=5,40=1/2;
 3/5=44,7=101,11=2,25=1,30=1,70=2201,71=2,72=1,74=-58,140=1/1,2,3;
 4//1;
 5/5=2,38=5,53=1/2;
 8/6=4,10=90,11=11/1;
 11/6=1,8=1,9=11,15=111,16=1/1,2,10;
 10/6=1,13=1/2;
 6/7=2,8=2,9=2,10=2,28=1/1;
 7/10=1,18=20,25=1/1,2,3,16;
 1/5=1,6=70,8=3,10=4,11=1,18=20,26=3/3(2);
 2/9=110/2;
 99//99;
 2/9=110/2;
 3/5=44,7=101,11=2,25=1,30=1,70=2205,71=1,72=1,74=-58/1,2,3;
 4/5=5,16=3,69=1/1;
 5/5=2,38=5,53=1/2;
 7//1,2,3,16;
 1/5=1,6=70,8=3,11=1,18=20,26=3/3(-5);
 2/9=110/2;
 6/7=2,8=2,9=2,10=2,19=2,28=1/1;
 99/9=1/99;
 ------------------------
 0_iteration/TS-480-0.out
 ------------------------
 Symbolic Z-matrix:
 Charge =  0 Multiplicity = 1
 C                     0.8298    0.50342  -0.21319 
 C                    -0.09793  -0.55617  -0.46249 
 O                     0.28938  -1.65182  -0.89299 
 C                     2.15431   0.36595  -0.59338 
 C                     4.23959  -1.59932   0.17186 
 H                     5.07741  -1.50768   0.86053 
 H                     4.03506  -2.65572   0.0102 
 H                     4.53442  -1.16201  -0.78538 
 N                     3.05051  -0.91841   0.68696 
 H                     2.28323  -1.55583   0.8488 
 H                     3.22884  -0.40409   1.53848 
 C                     3.14129   1.48729  -0.55291 
 H                     2.87754   2.21418  -1.32485 
 H                     3.12983   2.00163   0.40668 
 H                     4.14976   1.13292  -0.75915 
 H                     2.29719  -0.3596   -1.38563 
 Cl                    0.37521   1.84759   0.83067 
 C                    -1.56716  -0.37063  -0.21835 
 C                    -2.25704   0.73407  -0.70839 
 C                    -3.62922   0.8349   -0.53737 
 C                    -4.32071  -0.15724   0.14422 
 C                    -3.63757  -1.25937   0.6397 
 C                    -2.26922  -1.37071   0.4471 
 H                    -1.71953   1.51282  -1.23469 
 H                    -4.15974   1.69084  -0.93508 
 H                    -5.3908   -0.0729    0.28612 
 H                    -4.17268  -2.03596   1.17153 
 H                    -1.73464  -2.23738   0.8154 
 
 Add virtual bond connecting atoms N9         and C4         Dist= 3.82D+00.

 GradGradGradGradGradGradGradGradGradGradGradGradGradGradGradGradGradGrad
 Berny optimization.
 Initialization pass.
                           ----------------------------
                           !    Initial Parameters    !
                           ! (Angstroms and Degrees)  !
 --------------------------                            --------------------------
 ! Name  Definition              Value          Derivative Info.                !
 --------------------------------------------------------------------------------
 ! R1    R(1,2)                  1.4302         calculate D2E/DX2 analytically  !
 ! R2    R(1,4)                  1.3848         calculate D2E/DX2 analytically  !
 ! R3    R(1,17)                 1.7616         calculate D2E/DX2 analytically  !
 ! R4    R(2,3)                  1.2393         calculate D2E/DX2 analytically  !
 ! R5    R(2,18)                 1.5009         calculate D2E/DX2 analytically  !
 ! R6    R(4,9)                  2.0229         calculate D2E/DX2 analytically  !
 ! R7    R(4,12)                 1.4944         calculate D2E/DX2 analytically  !
 ! R8    R(4,16)                 1.0837         calculate D2E/DX2 analytically  !
 ! R9    R(5,6)                  1.0884         calculate D2E/DX2 analytically  !
 ! R10   R(5,7)                  1.0881         calculate D2E/DX2 analytically  !
 ! R11   R(5,8)                  1.0929         calculate D2E/DX2 analytically  !
 ! R12   R(5,9)                  1.4639         calculate D2E/DX2 analytically  !
 ! R13   R(9,10)                 1.0106         calculate D2E/DX2 analytically  !
 ! R14   R(9,11)                 1.0106         calculate D2E/DX2 analytically  !
 ! R15   R(12,13)                1.0926         calculate D2E/DX2 analytically  !
 ! R16   R(12,14)                1.0888         calculate D2E/DX2 analytically  !
 ! R17   R(12,15)                1.0886         calculate D2E/DX2 analytically  !
 ! R18   R(18,19)                1.3916         calculate D2E/DX2 analytically  !
 ! R19   R(18,23)                1.3914         calculate D2E/DX2 analytically  !
 ! R20   R(19,20)                1.3865         calculate D2E/DX2 analytically  !
 ! R21   R(19,24)                1.0828         calculate D2E/DX2 analytically  !
 ! R22   R(20,21)                1.3882         calculate D2E/DX2 analytically  !
 ! R23   R(20,25)                1.0827         calculate D2E/DX2 analytically  !
 ! R24   R(21,22)                1.3881         calculate D2E/DX2 analytically  !
 ! R25   R(21,26)                1.0827         calculate D2E/DX2 analytically  !
 ! R26   R(22,23)                1.3863         calculate D2E/DX2 analytically  !
 ! R27   R(22,27)                1.0827         calculate D2E/DX2 analytically  !
 ! R28   R(23,28)                1.0828         calculate D2E/DX2 analytically  !
 ! A1    A(2,1,4)              119.9341         calculate D2E/DX2 analytically  !
 ! A2    A(2,1,17)             120.0801         calculate D2E/DX2 analytically  !
 ! A3    A(4,1,17)             119.029          calculate D2E/DX2 analytically  !
 ! A4    A(1,2,3)              120.8519         calculate D2E/DX2 analytically  !
 ! A5    A(1,2,18)             120.9999         calculate D2E/DX2 analytically  !
 ! A6    A(3,2,18)             118.1472         calculate D2E/DX2 analytically  !
 ! A7    A(1,4,9)              108.2399         calculate D2E/DX2 analytically  !
 ! A8    A(1,4,12)             123.3511         calculate D2E/DX2 analytically  !
 ! A9    A(1,4,16)             113.1569         calculate D2E/DX2 analytically  !
 ! A10   A(9,4,12)              99.5947         calculate D2E/DX2 analytically  !
 ! A11   A(9,4,16)              88.809          calculate D2E/DX2 analytically  !
 ! A12   A(12,4,16)            115.7907         calculate D2E/DX2 analytically  !
 ! A13   A(6,5,7)              108.69           calculate D2E/DX2 analytically  !
 ! A14   A(6,5,8)              108.2305         calculate D2E/DX2 analytically  !
 ! A15   A(6,5,9)              111.3135         calculate D2E/DX2 analytically  !
 ! A16   A(7,5,8)              108.0023         calculate D2E/DX2 analytically  !
 ! A17   A(7,5,9)              110.5602         calculate D2E/DX2 analytically  !
 ! A18   A(8,5,9)              109.9501         calculate D2E/DX2 analytically  !
 ! A19   A(4,9,5)              115.6256         calculate D2E/DX2 analytically  !
 ! A20   A(4,9,10)              99.5244         calculate D2E/DX2 analytically  !
 ! A21   A(4,9,11)             106.7584         calculate D2E/DX2 analytically  !
 ! A22   A(5,9,10)             112.3153         calculate D2E/DX2 analytically  !
 ! A23   A(5,9,11)             112.9457         calculate D2E/DX2 analytically  !
 ! A24   A(10,9,11)            108.6651         calculate D2E/DX2 analytically  !
 ! A25   A(4,12,13)            108.7015         calculate D2E/DX2 analytically  !
 ! A26   A(4,12,14)            111.801          calculate D2E/DX2 analytically  !
 ! A27   A(4,12,15)            111.2499         calculate D2E/DX2 analytically  !
 ! A28   A(13,12,14)           107.8093         calculate D2E/DX2 analytically  !
 ! A29   A(13,12,15)           107.8381         calculate D2E/DX2 analytically  !
 ! A30   A(14,12,15)           109.2984         calculate D2E/DX2 analytically  !
 ! A31   A(2,18,19)            121.7462         calculate D2E/DX2 analytically  !
 ! A32   A(2,18,23)            118.874          calculate D2E/DX2 analytically  !
 ! A33   A(19,18,23)           119.267          calculate D2E/DX2 analytically  !
 ! A34   A(18,19,20)           120.3278         calculate D2E/DX2 analytically  !
 ! A35   A(18,19,24)           119.7376         calculate D2E/DX2 analytically  !
 ! A36   A(20,19,24)           119.9314         calculate D2E/DX2 analytically  !
 ! A37   A(19,20,21)           120.1045         calculate D2E/DX2 analytically  !
 ! A38   A(19,20,25)           119.8101         calculate D2E/DX2 analytically  !
 ! A39   A(21,20,25)           120.0853         calculate D2E/DX2 analytically  !
 ! A40   A(20,21,22)           119.8392         calculate D2E/DX2 analytically  !
 ! A41   A(20,21,26)           120.0647         calculate D2E/DX2 analytically  !
 ! A42   A(22,21,26)           120.0958         calculate D2E/DX2 analytically  !
 ! A43   A(21,22,23)           119.9956         calculate D2E/DX2 analytically  !
 ! A44   A(21,22,27)           120.1052         calculate D2E/DX2 analytically  !
 ! A45   A(23,22,27)           119.8981         calculate D2E/DX2 analytically  !
 ! A46   A(18,23,22)           120.4487         calculate D2E/DX2 analytically  !
 ! A47   A(18,23,28)           119.2654         calculate D2E/DX2 analytically  !
 ! A48   A(22,23,28)           120.2858         calculate D2E/DX2 analytically  !
 ! D1    D(4,1,2,3)              7.2959         calculate D2E/DX2 analytically  !
 ! D2    D(4,1,2,18)          -172.337          calculate D2E/DX2 analytically  !
 ! D3    D(17,1,2,3)          -161.4053         calculate D2E/DX2 analytically  !
 ! D4    D(17,1,2,18)           18.9619         calculate D2E/DX2 analytically  !
 ! D5    D(2,1,4,9)            -73.8551         calculate D2E/DX2 analytically  !
 ! D6    D(2,1,4,12)           170.8681         calculate D2E/DX2 analytically  !
 ! D7    D(2,1,4,16)            22.8727         calculate D2E/DX2 analytically  !
 ! D8    D(17,1,4,9)            94.9645         calculate D2E/DX2 analytically  !
 ! D9    D(17,1,4,12)          -20.3124         calculate D2E/DX2 analytically  !
 ! D10   D(17,1,4,16)         -168.3077         calculate D2E/DX2 analytically  !
 ! D11   D(1,2,18,19)           49.2139         calculate D2E/DX2 analytically  !
 ! D12   D(1,2,18,23)         -134.6752         calculate D2E/DX2 analytically  !
 ! D13   D(3,2,18,19)         -130.4286         calculate D2E/DX2 analytically  !
 ! D14   D(3,2,18,23)           45.6823         calculate D2E/DX2 analytically  !
 ! D15   D(1,4,9,5)            156.334          calculate D2E/DX2 analytically  !
 ! D16   D(1,4,9,10)            35.8372         calculate D2E/DX2 analytically  !
 ! D17   D(1,4,9,11)           -77.0815         calculate D2E/DX2 analytically  !
 ! D18   D(12,4,9,5)           -73.6671         calculate D2E/DX2 analytically  !
 ! D19   D(12,4,9,10)          165.8362         calculate D2E/DX2 analytically  !
 ! D20   D(12,4,9,11)           52.9174         calculate D2E/DX2 analytically  !
 ! D21   D(16,4,9,5)            42.299          calculate D2E/DX2 analytically  !
 ! D22   D(16,4,9,10)          -78.1977         calculate D2E/DX2 analytically  !
 ! D23   D(16,4,9,11)          168.8835         calculate D2E/DX2 analytically  !
 ! D24   D(1,4,12,13)          -69.3343         calculate D2E/DX2 analytically  !
 ! D25   D(1,4,12,14)           49.5585         calculate D2E/DX2 analytically  !
 ! D26   D(1,4,12,15)          172.0694         calculate D2E/DX2 analytically  !
 ! D27   D(9,4,12,13)          171.2412         calculate D2E/DX2 analytically  !
 ! D28   D(9,4,12,14)          -69.866          calculate D2E/DX2 analytically  !
 ! D29   D(9,4,12,15)           52.6449         calculate D2E/DX2 analytically  !
 ! D30   D(16,4,12,13)          77.9005         calculate D2E/DX2 analytically  !
 ! D31   D(16,4,12,14)        -163.2066         calculate D2E/DX2 analytically  !
 ! D32   D(16,4,12,15)         -40.6957         calculate D2E/DX2 analytically  !
 ! D33   D(6,5,9,4)            129.1976         calculate D2E/DX2 analytically  !
 ! D34   D(6,5,9,10)          -117.5209         calculate D2E/DX2 analytically  !
 ! D35   D(6,5,9,11)             5.8072         calculate D2E/DX2 analytically  !
 ! D36   D(7,5,9,4)           -109.8909         calculate D2E/DX2 analytically  !
 ! D37   D(7,5,9,10)             3.3906         calculate D2E/DX2 analytically  !
 ! D38   D(7,5,9,11)           126.7187         calculate D2E/DX2 analytically  !
 ! D39   D(8,5,9,4)              9.2725         calculate D2E/DX2 analytically  !
 ! D40   D(8,5,9,10)           122.5541         calculate D2E/DX2 analytically  !
 ! D41   D(8,5,9,11)          -114.1179         calculate D2E/DX2 analytically  !
 ! D42   D(2,18,19,20)         175.9646         calculate D2E/DX2 analytically  !
 ! D43   D(2,18,19,24)          -3.3934         calculate D2E/DX2 analytically  !
 ! D44   D(23,18,19,20)         -0.1314         calculate D2E/DX2 analytically  !
 ! D45   D(23,18,19,24)       -179.4894         calculate D2E/DX2 analytically  !
 ! D46   D(2,18,23,22)        -177.2413         calculate D2E/DX2 analytically  !
 ! D47   D(2,18,23,28)           2.8825         calculate D2E/DX2 analytically  !
 ! D48   D(19,18,23,22)         -1.0324         calculate D2E/DX2 analytically  !
 ! D49   D(19,18,23,28)        179.0914         calculate D2E/DX2 analytically  !
 ! D50   D(18,19,20,21)          1.0536         calculate D2E/DX2 analytically  !
 ! D51   D(18,19,20,25)       -179.0806         calculate D2E/DX2 analytically  !
 ! D52   D(24,19,20,21)       -179.5897         calculate D2E/DX2 analytically  !
 ! D53   D(24,19,20,25)          0.2762         calculate D2E/DX2 analytically  !
 ! D54   D(19,20,21,22)         -0.8144         calculate D2E/DX2 analytically  !
 ! D55   D(19,20,21,26)        179.3804         calculate D2E/DX2 analytically  !
 ! D56   D(25,20,21,22)        179.3201         calculate D2E/DX2 analytically  !
 ! D57   D(25,20,21,26)         -0.4851         calculate D2E/DX2 analytically  !
 ! D58   D(20,21,22,23)         -0.3445         calculate D2E/DX2 analytically  !
 ! D59   D(20,21,22,27)       -179.9699         calculate D2E/DX2 analytically  !
 ! D60   D(26,21,22,23)        179.4606         calculate D2E/DX2 analytically  !
 ! D61   D(26,21,22,27)         -0.1648         calculate D2E/DX2 analytically  !
 ! D62   D(21,22,23,18)          1.2736         calculate D2E/DX2 analytically  !
 ! D63   D(21,22,23,28)       -178.8514         calculate D2E/DX2 analytically  !
 ! D64   D(27,22,23,18)       -179.1001         calculate D2E/DX2 analytically  !
 ! D65   D(27,22,23,28)          0.7748         calculate D2E/DX2 analytically  !
 --------------------------------------------------------------------------------
 Trust Radius=3.00D-02 FncErr=1.00D-07 GrdErr=1.00D-06 EigMax=2.50D+02 EigMin=1.00D-04
 Number of steps in this run=     70 maximum allowed number of steps=    168.
 Search for a saddle point of order  1.
 GradGradGradGradGradGradGradGradGradGradGradGradGradGradGradGradGradGrad

                          Input orientation:                          
 ---------------------------------------------------------------------
 Center     Atomic      Atomic             Coordinates (Angstroms)
 Number     Number       Type             X           Y           Z
 ---------------------------------------------------------------------
      1          6           0        0.829800    0.503420   -0.213190
      2          6           0       -0.097930   -0.556170   -0.462490
      3          8           0        0.289380   -1.651820   -0.892990
      4          6           0        2.154310    0.365950   -0.593380
      5          6           0        4.239590   -1.599320    0.171860
      6          1           0        5.077410   -1.507680    0.860530
      7          1           0        4.035060   -2.655720    0.010200
      8          1           0        4.534420   -1.162010   -0.785380
      9          7           0        3.050510   -0.918410    0.686960
     10          1           0        2.283230   -1.555830    0.848800
     11          1           0        3.228840   -0.404090    1.538480
     12          6           0        3.141290    1.487290   -0.552910
     13          1           0        2.877540    2.214180   -1.324850
     14          1           0        3.129830    2.001630    0.406680
     15          1           0        4.149760    1.132920   -0.759150
     16          1           0        2.297190   -0.359600   -1.385630
     17         17           0        0.375210    1.847590    0.830670
     18          6           0       -1.567160   -0.370630   -0.218350
     19          6           0       -2.257040    0.734070   -0.708390
     20          6           0       -3.629220    0.834900   -0.537370
     21          6           0       -4.320710   -0.157240    0.144220
     22          6           0       -3.637570   -1.259370    0.639700
     23          6           0       -2.269220   -1.370710    0.447100
     24          1           0       -1.719530    1.512820   -1.234690
     25          1           0       -4.159740    1.690840   -0.935080
     26          1           0       -5.390800   -0.072900    0.286120
     27          1           0       -4.172680   -2.035960    1.171530
     28          1           0       -1.734640   -2.237380    0.815400
 ---------------------------------------------------------------------
                    Distance matrix (angstroms):
                    1          2          3          4          5
     1  C    0.000000
     2  C    1.430232   0.000000
     3  O    2.323627   1.239269   0.000000
     4  C    1.384835   2.437216   2.763897   0.000000
     5  C    4.024481   4.506067   4.091555   2.965851   0.000000
     6  H    4.820746   5.425855   5.101063   3.764154   1.088396
     7  H    4.505969   4.659737   3.981669   3.609989   1.088093
     8  H    4.101862   4.682944   4.274559   2.834863   1.092920
     9  N    2.786292   3.371220   3.264655   2.022876   1.463857
    10  H    2.735104   2.896329   2.649242   2.406188   2.070624
    11  H    3.106013   3.885152   4.013639   2.508466   2.077941
    12  C    2.535034   3.830986   4.254769   1.494380   3.355401
    13  H    2.890627   4.155951   4.672369   2.115198   4.317187
    14  H    2.814074   4.209065   4.806766   2.151095   3.775387
    15  H    3.422934   4.580819   4.761851   2.144188   2.887903
    16  H    2.067040   2.574379   2.437997   1.083742   2.781294
    17  Cl   1.761559   2.770232   3.901825   2.718156   5.220024
    18  C    2.551354   1.500888   2.354427   3.812156   5.948133
    19  C    3.134805   2.527240   3.494396   4.428177   6.958861
    20  C    4.483060   3.796142   4.654639   5.802781   8.267201
    21  C    5.204994   4.284754   4.956057   6.537864   8.680962
    22  C    4.877729   3.773376   4.233685   6.140686   7.898360
    23  C    3.681341   2.491050   2.901947   4.864792   6.518637
    24  H    2.925993   2.739817   3.763964   4.090627   6.868399
    25  H    5.179440   4.665908   5.565053   6.460597   9.088411
    26  H    6.267162   5.367349   6.012299   7.608863   9.751278
    27  H    5.778469   4.632860   4.931509   6.993917   8.482705
    28  H    3.891829   2.671758   2.712588   4.887322   6.042573
                    6          7          8          9         10
     6  H    0.000000
     7  H    1.768488   0.000000
     8  H    1.767299   1.764505   0.000000
     9  N    2.117945   2.108457   2.104546   0.000000
    10  H    2.794619   2.232021   2.809536   1.010552   0.000000
    11  H    2.257153   2.838216   2.771156   1.010650   1.642054
    12  C    3.836172   4.275564   3.002273   2.707935   3.458560
    13  H    4.844332   5.180554   3.799334   3.726985   4.392145
    14  H    4.039097   4.761045   3.660942   2.934533   3.683439
    15  H    3.233677   3.867667   2.327092   2.739989   3.646754
    16  H    3.754057   3.200109   2.451400   2.274948   2.534529
    17  Cl   5.776626   5.860672   5.382224   3.850797   3.901812
    18  C    6.826945   6.054646   6.178761   4.737354   4.167615
    19  C    7.828225   7.183145   7.051594   5.731298   5.318133
    20  C    9.123991   8.439517   8.407983   7.013692   6.526417
    21  C    9.521631   8.722342   8.960304   7.430265   6.787084
    22  C    8.721313   7.824022   8.295888   6.696932   5.931904
    23  C    7.359528   6.448727   6.917520   5.344309   4.573886
    24  H    7.727339   7.213999   6.816780   5.688313   5.457072
    25  H    9.938797   9.324210   9.151480   7.837532   7.432022
    26  H   10.581680   9.777215  10.042125   8.493013   7.836225
    27  H    9.270381   8.312628   8.966988   7.325176   6.481779
    28  H    6.851170   5.840616   6.558966   4.965263   4.075402
                   11         12         13         14         15
    11  H    0.000000
    12  C    2.821151   0.000000
    13  H    3.895819   1.092623   0.000000
    14  H    2.660501   1.088802   1.762675   0.000000
    15  H    2.913691   1.088634   1.762862   1.775971   0.000000
    16  H    3.069262   2.194751   2.639099   3.079135   2.460103
    17  Cl   3.703277   3.113729   3.322997   2.791313   4.157584
    18  C    5.107758   5.072800   5.259367   5.299056   5.936017
    19  C    6.036449   5.452842   5.379095   5.645215   6.419404
    20  C    7.271674   6.801886   6.697795   6.923673   7.787845
    21  C    7.681185   7.672803   7.719884   7.761453   8.615652
    22  C    6.977600   7.410763   7.640135   7.515725   8.265733
    23  C    5.688069   6.200145   6.517698   6.365850   6.994748
    24  H    5.987602   4.908467   4.651138   5.142891   5.900765
    25  H    8.068355   7.313858   7.067469   7.418540   8.330067
    26  H    8.716438   8.714053   8.728769   8.770367   9.673101
    27  H    7.588159   8.299466   8.602395   8.379366   9.112208
    28  H    5.340405   6.286504   6.757904   6.465240   6.961630
                   16         17         18         19         20
    16  H    0.000000
    17  Cl   3.671196   0.000000
    18  C    4.036814   3.129496   0.000000
    19  C    4.732418   3.246132   1.391559   0.000000
    20  C    6.104810   4.351153   2.409807   1.386468   0.000000
    21  C    6.795439   5.151914   2.785504   2.404186   1.388188
    22  C    6.335055   5.078590   2.410955   2.774349   2.402401
    23  C    5.023280   4.183012   1.391356   2.401126   2.771912
    24  H    4.434273   2.960696   2.145588   1.082756   2.143069
    25  H    6.789642   4.869108   3.388928   2.141743   1.082709
    26  H    7.872873   6.101777   3.868250   3.385366   2.146020
    27  H    7.156009   5.990113   3.390254   3.857051   3.384897
    28  H    4.962484   4.597682   2.140431   3.379993   3.854650
                   21         22         23         24         25
    21  C    0.000000
    22  C    1.388118   0.000000
    23  C    2.402677   1.386316   0.000000
    24  H    3.384764   3.857104   3.383094   0.000000
    25  H    2.146206   3.384720   3.854553   2.464971   0.000000
    26  H    1.082747   2.146286   3.384448   4.278504   2.473382
    27  H    2.146361   1.082718   2.142549   4.939806   4.281006
    28  H    3.386034   2.146746   1.082838   4.274002   4.937226
                   26         27         28
    26  H    0.000000
    27  H    2.474141   0.000000
    28  H    4.281661   2.472132   0.000000
 Stoichiometry    C11H14ClNO
 Framework group  C1[X(C11H14ClNO)]
 Deg. of freedom    78
 Full point group                 C1      NOp   1
 Largest Abelian subgroup         C1      NOp   1
 Largest concise Abelian subgroup C1      NOp   1
                         Standard orientation:                         
 ---------------------------------------------------------------------
 Center     Atomic      Atomic             Coordinates (Angstroms)
 Number     Number       Type             X           Y           Z
 ---------------------------------------------------------------------
      1          6           0        0.829801    0.503420   -0.213190
      2          6           0       -0.097930   -0.556170   -0.462490
      3          8           0        0.289380   -1.651820   -0.892990
      4          6           0        2.154311    0.365949   -0.593380
      5          6           0        4.239590   -1.599322    0.171860
      6          1           0        5.077410   -1.507683    0.860530
      7          1           0        4.035059   -2.655722    0.010200
      8          1           0        4.534420   -1.162012   -0.785380
      9          7           0        3.050510   -0.918411    0.686960
     10          1           0        2.283230   -1.555831    0.848800
     11          1           0        3.228841   -0.404091    1.538480
     12          6           0        3.141292    1.487289   -0.552910
     13          1           0        2.877542    2.214179   -1.324850
     14          1           0        3.129832    2.001629    0.406680
     15          1           0        4.149761    1.132918   -0.759150
     16          1           0        2.297191   -0.359601   -1.385630
     17         17           0        0.375212    1.847590    0.830670
     18          6           0       -1.567159   -0.370629   -0.218350
     19          6           0       -2.257039    0.734072   -0.708390
     20          6           0       -3.629219    0.834902   -0.537370
     21          6           0       -4.320709   -0.157237    0.144220
     22          6           0       -3.637570   -1.259368    0.639700
     23          6           0       -2.269220   -1.370708    0.447100
     24          1           0       -1.719528    1.512821   -1.234690
     25          1           0       -4.159738    1.690843   -0.935080
     26          1           0       -5.390799   -0.072897    0.286120
     27          1           0       -4.172680   -2.035957    1.171530
     28          1           0       -1.734640   -2.237379    0.815400
 ---------------------------------------------------------------------
 Rotational constants (GHZ):           1.1956573           0.3363807           0.2880102
 Standard basis: def2TZVP (5D, 7F)
 There are   594 symmetry adapted cartesian basis functions of A   symmetry.
 There are   524 symmetry adapted basis functions of A   symmetry.
   524 basis functions,   844 primitive gaussians,   594 cartesian basis functions
    56 alpha electrons       56 beta electrons
       nuclear repulsion energy       971.3683701560 Hartrees.
 NAtoms=   28 NActive=   28 NUniq=   28 SFac= 1.00D+00 NAtFMM=   60 NAOKFM=F Big=F
 Integral buffers will be    131072 words long.
 Raffenetti 2 integral format.
 Two-electron integral symmetry is turned on.
 Nuclear repulsion after empirical dispersion term =      971.3498048940 Hartrees.
 Force inversion solution in PCM.
 ------------------------------------------------------------------------------
 Polarizable Continuum Model (PCM)
 =================================
 Model                : PCM.
 Atomic radii         : UFF (Universal Force Field).
 Polarization charges : Total charges.
 Charge compensation  : None.
 Solution method      : Matrix inversion.
 Cavity type          : Scaled VdW (van der Waals Surface) (Alpha=1.100).
 Cavity algorithm     : GePol (No added spheres)
                        Default sphere list used, NSphG=   28.
                        Lebedev-Laikov grids with approx.  5.0 points / Ang**2.
                        Smoothing algorithm: York/Karplus (Gamma=1.0000).
                        Polarization charges: spherical gaussians, with
                                              point-specific exponents (IZeta= 3).
                        Self-potential: point-specific (ISelfS= 7).
                        Self-field    : sphere-specific E.n sum rule (ISelfD= 2).
 1st derivatives      : Analytical E(r).r(x)/FMM algorithm (CHGder, D1EAlg=3).
                        Cavity 1st derivative terms included.
 2nd derivatives      : Analytical E(r).r(xy)/FMM algorithm (CHGder, D2EAlg=3).
                        Cavity 2nd derivative terms included.
 Solvent              : Water, Eps=  78.355300 Eps(inf)=   1.777849
 ------------------------------------------------------------------------------
 One-electron integrals computed using PRISM.
   1 Symmetry operations used in ECPInt.
 ECPInt:  NShTT=   22578 NPrTT=   69370 LenC2=   20323 LenP2D=   45799.
 LDataN:  DoStor=T MaxTD1= 6 Len=  172
 NBasis=   524 RedAO= T EigKep=  8.07D-06  NBF=   524
 NBsUse=   524 1.00D-06 EigRej= -1.00D+00 NBFU=   524
 ExpMin= 9.52D-02 ExpMax= 6.95D+04 ExpMxC= 2.37D+03 IAcc=3 IRadAn=         5 AccDes= 0.00D+00
 Harris functional with IExCor= 4639 and IRadAn=       5 diagonalized for initial guess.
 HarFok:  IExCor= 4639 AccDes= 0.00D+00 IRadAn=         5 IDoV= 1 UseB2=F ITyADJ=14
 ICtDFT=  3500011 ScaDFX=  1.000000  1.000000  1.000000  1.000000
 FoFCou: FMM=F IPFlag=           0 FMFlag=      100000 FMFlg1=           0
         NFxFlg=           0 DoJE=T BraDBF=F KetDBF=T FulRan=T
         wScrn=  0.000000 ICntrl=       500 IOpCl=  0 I1Cent=   200000004 NGrid=           0
         NMat0=    1 NMatS0=      1 NMatT0=    0 NMatD0=    1 NMtDS0=    0 NMtDT0=    0
 Petite list used in FoFCou.
 Requested convergence on RMS density matrix=1.00D-08 within 128 cycles.
 Requested convergence on MAX density matrix=1.00D-06.
 Requested convergence on             energy=1.00D-06.
 No special actions if energy rises.
 Inv3:  Mode=1 IEnd=    13996800.
 Iteration    1 A*A^-1 deviation from unit magnitude is 5.33D-15 for   2138.
 Iteration    1 A*A^-1 deviation from orthogonality  is 1.97D-15 for   2143    923.
 Iteration    1 A^-1*A deviation from unit magnitude is 5.33D-15 for   2138.
 Iteration    1 A^-1*A deviation from orthogonality  is 1.34D-15 for   2158   2155.
 Error on total polarization charges =  0.01523
 SCF Done:  E(RwB97XD) =  -1017.77241941     A.U. after   15 cycles
            NFock= 15  Conv=0.30D-08     -V/T= 2.0033
 DoSCS=F DFT=T ScalE2(SS,OS)=  1.000000  1.000000
 Range of M.O.s used for correlation:     1   524
 NBasis=   524 NAE=    56 NBE=    56 NFC=     0 NFV=     0
 NROrb=    524 NOA=    56 NOB=    56 NVA=   468 NVB=   468

 **** Warning!!: The largest alpha MO coefficient is  0.61264106D+02

   1 Symmetry operations used in ECPInt.
 ECPInt:  NShTT=   22578 NPrTT=   69370 LenC2=   20323 LenP2D=   45799.
 LDataN:  DoStor=T MaxTD1= 7 Len=  274
 Symmetrizing basis deriv contribution to polar:
 IMax=3 JMax=2 DiffMx= 0.00D+00
 G2DrvN: will do    29 centers at a time, making    1 passes.
 Calling FoFCou, ICntrl=  3107 FMM=F I1Cent=   0 AccDes= 0.00D+00.
 NEqPCM:  Using equilibrium solvation (IEInf=0, Eps=  78.3553, EpsInf=   1.7778)
 G2PCM: DoFxE=T DoFxN=T DoGrad=T DoDP/DQ/DG/TGxP=FFFF NFrqRd=   0 IEInf=0 SqF1=F DoCFld=F IF1Alg=4.
 End of G2Drv F.D. properties file   721 does not exist.
 End of G2Drv F.D. properties file   722 does not exist.
 End of G2Drv F.D. properties file   788 does not exist.
          IDoAtm=1111111111111111111111111111
 NEqPCM:  Using equilibrium solvation (IEInf=0, Eps=  78.3553, EpsInf=   1.7778)
          Differentiating once with respect to nuclear coordinates.
 CalDSu exits because no D1Ps are significant.
          There are    87 degrees of freedom in the 1st order CPHF.  IDoFFX=6 NUNeed=     0.
     81 vectors produced by pass  0 Test12= 3.01D-14 1.15D-09 XBig12= 1.10D-01 1.65D-01.
 AX will form    81 AO Fock derivatives at one time.
     81 vectors produced by pass  1 Test12= 3.01D-14 1.15D-09 XBig12= 2.01D-02 3.90D-02.
     81 vectors produced by pass  2 Test12= 3.01D-14 1.15D-09 XBig12= 5.61D-04 4.88D-03.
     81 vectors produced by pass  3 Test12= 3.01D-14 1.15D-09 XBig12= 9.05D-06 4.39D-04.
     81 vectors produced by pass  4 Test12= 3.01D-14 1.15D-09 XBig12= 1.05D-07 2.96D-05.
     81 vectors produced by pass  5 Test12= 3.01D-14 1.15D-09 XBig12= 9.30D-10 3.17D-06.
     81 vectors produced by pass  6 Test12= 3.01D-14 1.15D-09 XBig12= 8.23D-12 2.69D-07.
     35 vectors produced by pass  7 Test12= 3.01D-14 1.15D-09 XBig12= 5.64D-14 2.44D-08.
      7 vectors produced by pass  8 Test12= 3.01D-14 1.15D-09 XBig12= 3.56D-15 6.35D-09.
      4 vectors produced by pass  9 Test12= 3.01D-14 1.15D-09 XBig12= 2.15D-15 6.37D-09.
      3 vectors produced by pass 10 Test12= 3.01D-14 1.15D-09 XBig12= 2.90D-15 6.91D-09.
      2 vectors produced by pass 11 Test12= 3.01D-14 1.15D-09 XBig12= 4.25D-16 2.73D-09.
 InvSVY:  IOpt=1 It=  1 EMax= 4.44D-16
 Solved reduced A of dimension   618 with    87 vectors.
 End of Minotr F.D. properties file   721 does not exist.
 End of Minotr F.D. properties file   722 does not exist.
 End of Minotr F.D. properties file   788 does not exist.

 **********************************************************************

            Population analysis using the SCF density.

 **********************************************************************

 Orbital symmetries:
       Occupied  (A) (A) (A) (A) (A) (A) (A) (A) (A) (A) (A) (A)
                 (A) (A) (A) (A) (A) (A) (A) (A) (A) (A) (A) (A)
                 (A) (A) (A) (A) (A) (A) (A) (A) (A) (A) (A) (A)
                 (A) (A) (A) (A) (A) (A) (A) (A) (A) (A) (A) (A)
                 (A) (A) (A) (A) (A) (A) (A) (A)
       Virtual   (A) (A) (A) (A) (A) (A) (A) (A) (A) (A) (A) (A)
                 (A) (A) (A) (A) (A) (A) (A) (A) (A) (A) (A) (A)
                 (A) (A) (A) (A) (A) (A) (A) (A) (A) (A) (A) (A)
                 (A) (A) (A) (A) (A) (A) (A) (A) (A) (A) (A) (A)
                 (A) (A) (A) (A) (A) (A) (A) (A) (A) (A) (A) (A)
                 (A) (A) (A) (A) (A) (A) (A) (A) (A) (A) (A) (A)
                 (A) (A) (A) (A) (A) (A) (A) (A) (A) (A) (A) (A)
                 (A) (A) (A) (A) (A) (A) (A) (A) (A) (A) (A) (A)
                 (A) (A) (A) (A) (A) (A) (A) (A) (A) (A) (A) (A)
                 (A) (A) (A) (A) (A) (A) (A) (A) (A) (A) (A) (A)
                 (A) (A) (A) (A) (A) (A) (A) (A) (A) (A) (A) (A)
                 (A) (A) (A) (A) (A) (A) (A) (A) (A) (A) (A) (A)
                 (A) (A) (A) (A) (A) (A) (A) (A) (A) (A) (A) (A)
                 (A) (A) (A) (A) (A) (A) (A) (A) (A) (A) (A) (A)
                 (A) (A) (A) (A) (A) (A) (A) (A) (A) (A) (A) (A)
                 (A) (A) (A) (A) (A) (A) (A) (A) (A) (A) (A) (A)
                 (A) (A) (A) (A) (A) (A) (A) (A) (A) (A) (A) (A)
                 (A) (A) (A) (A) (A) (A) (A) (A) (A) (A) (A) (A)
                 (A) (A) (A) (A) (A) (A) (A) (A) (A) (A) (A) (A)
                 (A) (A) (A) (A) (A) (A) (A) (A) (A) (A) (A) (A)
                 (A) (A) (A) (A) (A) (A) (A) (A) (A) (A) (A) (A)
                 (A) (A) (A) (A) (A) (A) (A) (A) (A) (A) (A) (A)
                 (A) (A) (A) (A) (A) (A) (A) (A) (A) (A) (A) (A)
                 (A) (A) (A) (A) (A) (A) (A) (A) (A) (A) (A) (A)
                 (A) (A) (A) (A) (A) (A) (A) (A) (A) (A) (A) (A)
                 (A) (A) (A) (A) (A) (A) (A) (A) (A) (A) (A) (A)
                 (A) (A) (A) (A) (A) (A) (A) (A) (A) (A) (A) (A)
                 (A) (A) (A) (A) (A) (A) (A) (A) (A) (A) (A) (A)
                 (A) (A) (A) (A) (A) (A) (A) (A) (A) (A) (A) (A)
                 (A) (A) (A) (A) (A) (A) (A) (A) (A) (A) (A) (A)
                 (A) (A) (A) (A) (A) (A) (A) (A) (A) (A) (A) (A)
                 (A) (A) (A) (A) (A) (A) (A) (A) (A) (A) (A) (A)
                 (A) (A) (A) (A) (A) (A) (A) (A) (A) (A) (A) (A)
                 (A) (A) (A) (A) (A) (A) (A) (A) (A) (A) (A) (A)
                 (A) (A) (A) (A) (A) (A) (A) (A) (A) (A) (A) (A)
                 (A) (A) (A) (A) (A) (A) (A) (A) (A) (A) (A) (A)
                 (A) (A) (A) (A) (A) (A) (A) (A) (A) (A) (A) (A)
                 (A) (A) (A) (A) (A) (A) (A) (A) (A) (A) (A) (A)
                 (A) (A) (A) (A) (A) (A) (A) (A) (A) (A) (A) (A)
 The electronic state is 1-A.
 Alpha  occ. eigenvalues -- -101.68737 -19.21623 -14.46522 -10.36410 -10.34007
 Alpha  occ. eigenvalues --  -10.31413 -10.30918 -10.29786 -10.29336 -10.29259
 Alpha  occ. eigenvalues --  -10.29232 -10.29112 -10.29095 -10.28433  -9.57275
 Alpha  occ. eigenvalues --   -7.31895  -7.31069  -7.31056  -1.12367  -1.02142
 Alpha  occ. eigenvalues --   -0.97071  -0.96122  -0.88038  -0.86416  -0.85295
 Alpha  occ. eigenvalues --   -0.80273  -0.78215  -0.73702  -0.70621  -0.67963
 Alpha  occ. eigenvalues --   -0.63065  -0.62072  -0.60487  -0.57183  -0.55660
 Alpha  occ. eigenvalues --   -0.55111  -0.54338  -0.53425  -0.53014  -0.51192
 Alpha  occ. eigenvalues --   -0.49955  -0.49679  -0.48690  -0.47993  -0.46878
 Alpha  occ. eigenvalues --   -0.45926  -0.44818  -0.44150  -0.43100  -0.41985
 Alpha  occ. eigenvalues --   -0.39950  -0.39363  -0.34612  -0.33773  -0.32479
 Alpha  occ. eigenvalues --   -0.27660
 Alpha virt. eigenvalues --    0.01700   0.05247   0.06521   0.10066   0.11624
 Alpha virt. eigenvalues --    0.13222   0.14026   0.14461   0.15074   0.15441
 Alpha virt. eigenvalues --    0.16294   0.17295   0.17923   0.18876   0.19604
 Alpha virt. eigenvalues --    0.19957   0.20261   0.20766   0.21614   0.22875
 Alpha virt. eigenvalues --    0.23425   0.24212   0.24925   0.25603   0.26815
 Alpha virt. eigenvalues --    0.27499   0.28401   0.28808   0.29117   0.29864
 Alpha virt. eigenvalues --    0.30617   0.31291   0.31404   0.31709   0.31910
 Alpha virt. eigenvalues --    0.32914   0.34740   0.35166   0.35355   0.36151
 Alpha virt. eigenvalues --    0.37191   0.38609   0.38821   0.39650   0.39810
 Alpha virt. eigenvalues --    0.40617   0.41058   0.41617   0.42751   0.42994
 Alpha virt. eigenvalues --    0.44269   0.44531   0.45042   0.45756   0.46015
 Alpha virt. eigenvalues --    0.46278   0.47485   0.47691   0.48375   0.49063
 Alpha virt. eigenvalues --    0.49587   0.49851   0.50563   0.51246   0.51563
 Alpha virt. eigenvalues --    0.52529   0.52933   0.53469   0.54212   0.54415
 Alpha virt. eigenvalues --    0.55065   0.56346   0.56479   0.57001   0.58000
 Alpha virt. eigenvalues --    0.58713   0.58937   0.59379   0.59793   0.61023
 Alpha virt. eigenvalues --    0.61696   0.62676   0.63314   0.64107   0.64943
 Alpha virt. eigenvalues --    0.65975   0.66681   0.68209   0.69429   0.70278
 Alpha virt. eigenvalues --    0.71994   0.72874   0.73650   0.74588   0.75275
 Alpha virt. eigenvalues --    0.76844   0.77483   0.78023   0.78808   0.79227
 Alpha virt. eigenvalues --    0.80096   0.81152   0.82776   0.83874   0.84713
 Alpha virt. eigenvalues --    0.86423   0.86618   0.89004   0.89530   0.90669
 Alpha virt. eigenvalues --    0.91597   0.92915   0.93420   0.94499   0.95842
 Alpha virt. eigenvalues --    0.97254   0.97949   0.98780   0.99482   1.00184
 Alpha virt. eigenvalues --    1.01458   1.04146   1.05504   1.05985   1.06851
 Alpha virt. eigenvalues --    1.08562   1.09074   1.10584   1.10819   1.12798
 Alpha virt. eigenvalues --    1.13544   1.14386   1.16536   1.17902   1.19225
 Alpha virt. eigenvalues --    1.21222   1.21371   1.22116   1.23950   1.24508
 Alpha virt. eigenvalues --    1.27555   1.28449   1.30074   1.30204   1.31208
 Alpha virt. eigenvalues --    1.33280   1.34111   1.34865   1.35842   1.36368
 Alpha virt. eigenvalues --    1.37869   1.39887   1.40425   1.42245   1.42824
 Alpha virt. eigenvalues --    1.43237   1.44833   1.47340   1.48907   1.50486
 Alpha virt. eigenvalues --    1.52260   1.52713   1.54353   1.54964   1.56356
 Alpha virt. eigenvalues --    1.58611   1.59194   1.59430   1.60854   1.61969
 Alpha virt. eigenvalues --    1.62272   1.63024   1.63306   1.65082   1.65520
 Alpha virt. eigenvalues --    1.67083   1.67307   1.68470   1.68578   1.70059
 Alpha virt. eigenvalues --    1.70831   1.71953   1.73507   1.74953   1.76657
 Alpha virt. eigenvalues --    1.77657   1.79034   1.79073   1.79955   1.81205
 Alpha virt. eigenvalues --    1.82639   1.83316   1.84202   1.85293   1.86084
 Alpha virt. eigenvalues --    1.88721   1.90149   1.92349   1.93360   1.94059
 Alpha virt. eigenvalues --    1.94810   1.95751   1.97068   1.97644   1.98698
 Alpha virt. eigenvalues --    1.99567   2.00864   2.01263   2.01892   2.02214
 Alpha virt. eigenvalues --    2.05630   2.06066   2.07443   2.09391   2.09746
 Alpha virt. eigenvalues --    2.12067   2.13555   2.14648   2.15298   2.16372
 Alpha virt. eigenvalues --    2.17321   2.18229   2.19454   2.20098   2.21342
 Alpha virt. eigenvalues --    2.21587   2.22115   2.23260   2.24874   2.26830
 Alpha virt. eigenvalues --    2.27883   2.29835   2.30661   2.32292   2.33503
 Alpha virt. eigenvalues --    2.33813   2.34644   2.35616   2.36656   2.38084
 Alpha virt. eigenvalues --    2.39824   2.40378   2.41374   2.42523   2.44221
 Alpha virt. eigenvalues --    2.44664   2.46198   2.47178   2.48179   2.51756
 Alpha virt. eigenvalues --    2.52378   2.52947   2.53720   2.54967   2.56525
 Alpha virt. eigenvalues --    2.58395   2.60130   2.61180   2.62516   2.63296
 Alpha virt. eigenvalues --    2.64343   2.66379   2.67500   2.68346   2.69685
 Alpha virt. eigenvalues --    2.71497   2.72473   2.72778   2.73763   2.74948
 Alpha virt. eigenvalues --    2.75629   2.75869   2.76504   2.77295   2.78632
 Alpha virt. eigenvalues --    2.79563   2.79808   2.82213   2.83147   2.84220
 Alpha virt. eigenvalues --    2.85227   2.85708   2.86690   2.87399   2.87882
 Alpha virt. eigenvalues --    2.89929   2.91257   2.91951   2.92842   2.93249
 Alpha virt. eigenvalues --    2.94822   2.95121   2.95410   2.98026   2.98404
 Alpha virt. eigenvalues --    3.00893   3.02999   3.04695   3.06103   3.07221
 Alpha virt. eigenvalues --    3.10028   3.10461   3.11744   3.12381   3.14451
 Alpha virt. eigenvalues --    3.15210   3.16968   3.17473   3.19039   3.19256
 Alpha virt. eigenvalues --    3.20668   3.21177   3.21994   3.22420   3.23272
 Alpha virt. eigenvalues --    3.24041   3.24878   3.25282   3.26432   3.27314
 Alpha virt. eigenvalues --    3.28439   3.29645   3.31800   3.32158   3.33717
 Alpha virt. eigenvalues --    3.33884   3.36160   3.36433   3.36966   3.38046
 Alpha virt. eigenvalues --    3.38928   3.40154   3.41714   3.42338   3.43696
 Alpha virt. eigenvalues --    3.44090   3.44375   3.45679   3.46661   3.48240
 Alpha virt. eigenvalues --    3.49682   3.50615   3.51342   3.51962   3.53361
 Alpha virt. eigenvalues --    3.53857   3.55055   3.57310   3.57812   3.58039
 Alpha virt. eigenvalues --    3.59212   3.59634   3.60774   3.61223   3.64982
 Alpha virt. eigenvalues --    3.66097   3.66713   3.69637   3.70117   3.73082
 Alpha virt. eigenvalues --    3.73357   3.76125   3.76770   3.79357   3.81920
 Alpha virt. eigenvalues --    3.82843   3.83644   3.85251   3.87701   3.88673
 Alpha virt. eigenvalues --    3.91543   3.92887   3.95540   3.98787   4.01450
 Alpha virt. eigenvalues --    4.02143   4.03247   4.05264   4.06669   4.11672
 Alpha virt. eigenvalues --    4.13814   4.16264   4.19221   4.20538   4.22247
 Alpha virt. eigenvalues --    4.23032   4.23969   4.26924   4.27970   4.30217
 Alpha virt. eigenvalues --    4.30658   4.31619   4.32676   4.33969   4.36134
 Alpha virt. eigenvalues --    4.36831   4.39747   4.41353   4.42129   4.43529
 Alpha virt. eigenvalues --    4.47686   4.50868   4.52608   4.54152   4.55295
 Alpha virt. eigenvalues --    4.59441   4.60837   4.63137   4.67512   4.70341
 Alpha virt. eigenvalues --    4.76846   4.78263   4.79566   4.81012   4.82750
 Alpha virt. eigenvalues --    4.89682   4.92026   4.96702   4.99301   5.01678
 Alpha virt. eigenvalues --    5.05393   5.05945   5.07003   5.09266   5.12542
 Alpha virt. eigenvalues --    5.16187   5.18996   5.21739   5.25987   5.29910
 Alpha virt. eigenvalues --    5.31903   5.33806   5.34464   5.37866   5.42994
 Alpha virt. eigenvalues --    5.47200   5.52168   5.57360   5.60183   5.65696
 Alpha virt. eigenvalues --    5.76880   5.85505   5.93425   6.21310   6.40723
 Alpha virt. eigenvalues --    6.53074   6.66461   6.72662   6.95216   7.16363
 Alpha virt. eigenvalues --    7.21184  10.86987  10.98099  11.47930  22.11880
 Alpha virt. eigenvalues --   22.44817  22.50995  22.56702  22.69631  22.73363
 Alpha virt. eigenvalues --   22.86609  22.89166  22.95403  23.28585  23.42835
 Alpha virt. eigenvalues --   25.86348  32.13578  44.11652
          Condensed to atoms (all electrons):
               1          2          3          4          5          6
     1  C    5.926072   0.121883  -0.183688   0.337813   0.002819  -0.000684
     2  C    0.121883   4.944908   0.602773  -0.036950   0.000738  -0.000039
     3  O   -0.183688   0.602773   8.106796   0.012525   0.001025   0.000064
     4  C    0.337813  -0.036950   0.012525   5.218056   0.009754  -0.001294
     5  C    0.002819   0.000738   0.001025   0.009754   4.830076   0.413025
     6  H   -0.000684  -0.000039   0.000064  -0.001294   0.413025   0.519627
     7  H   -0.000421  -0.000299   0.000745  -0.004718   0.410829  -0.016113
     8  H    0.001909   0.000532  -0.000363   0.018013   0.422356  -0.032478
     9  N   -0.050854  -0.011921   0.002751  -0.003502   0.237896  -0.023641
    10  H   -0.010879   0.005199   0.008920  -0.010500  -0.021101   0.002458
    11  H   -0.000552   0.000387   0.000105  -0.003531  -0.023520  -0.010962
    12  C   -0.048995   0.008113   0.004520   0.228607  -0.009971   0.000897
    13  H   -0.000558  -0.000322  -0.000044  -0.045735  -0.000073   0.000010
    14  H   -0.019463  -0.000061  -0.000061  -0.014509  -0.000626   0.000149
    15  H    0.014199  -0.000190  -0.000078  -0.051760   0.000849  -0.000611
    16  H   -0.056508  -0.004945   0.019549   0.442171  -0.003257   0.000077
    17  Cl   0.239872  -0.036046   0.005045  -0.067788  -0.000136   0.000015
    18  C   -0.163996   0.303404  -0.122021   0.016981   0.000178  -0.000005
    19  C    0.012581  -0.082282  -0.000370   0.001967  -0.000000   0.000000
    20  C   -0.005126   0.015334  -0.001034   0.000051  -0.000000   0.000000
    21  C    0.002516  -0.006895   0.000696   0.000004  -0.000000   0.000000
    22  C   -0.006373   0.008293  -0.001449  -0.000028   0.000000  -0.000000
    23  C    0.053366  -0.132118   0.040803  -0.003500  -0.000033   0.000000
    24  H    0.006309  -0.011418   0.000040  -0.000058  -0.000000  -0.000000
    25  H    0.000046  -0.000162   0.000007  -0.000003  -0.000000  -0.000000
    26  H    0.000005   0.000054   0.000000   0.000000  -0.000000   0.000000
    27  H   -0.000010  -0.000165  -0.000080   0.000000   0.000000  -0.000000
    28  H    0.003402  -0.005031   0.013258  -0.000236  -0.000008   0.000000
               7          8          9         10         11         12
     1  C   -0.000421   0.001909  -0.050854  -0.010879  -0.000552  -0.048995
     2  C   -0.000299   0.000532  -0.011921   0.005199   0.000387   0.008113
     3  O    0.000745  -0.000363   0.002751   0.008920   0.000105   0.004520
     4  C   -0.004718   0.018013  -0.003502  -0.010500  -0.003531   0.228607
     5  C    0.410829   0.422356   0.237896  -0.021101  -0.023520  -0.009971
     6  H   -0.016113  -0.032478  -0.023641   0.002458  -0.010962   0.000897
     7  H    0.515361  -0.029241  -0.020338  -0.011396   0.003377   0.001202
     8  H   -0.029241   0.555801  -0.069356   0.003857   0.003218  -0.008748
     9  N   -0.020338  -0.069356   6.640362   0.362663   0.359462  -0.001079
    10  H   -0.011396   0.003857   0.362663   0.414957  -0.021976   0.002572
    11  H    0.003377   0.003218   0.359462  -0.021976   0.412599  -0.002070
    12  C    0.001202  -0.008748  -0.001079   0.002572  -0.002070   4.930723
    13  H    0.000011  -0.000452   0.004932  -0.000225   0.000029   0.417663
    14  H   -0.000022   0.000136  -0.003844   0.000259   0.001146   0.407157
    15  H    0.000141   0.002960  -0.006173   0.000376  -0.000548   0.423052
    16  H    0.000758  -0.000980  -0.034257  -0.003118   0.002445  -0.028266
    17  Cl   0.000009  -0.000052   0.003590   0.000643   0.001260  -0.006567
    18  C   -0.000016   0.000034  -0.001332  -0.000445  -0.000052  -0.000471
    19  C    0.000000  -0.000001   0.000027  -0.000031   0.000001   0.000097
    20  C    0.000000  -0.000000   0.000007   0.000003  -0.000000  -0.000000
    21  C    0.000000  -0.000000   0.000000   0.000001  -0.000000   0.000000
    22  C    0.000000   0.000000  -0.000006   0.000003   0.000001  -0.000001
    23  C    0.000003  -0.000004   0.000408   0.000057  -0.000012  -0.000116
    24  H   -0.000000   0.000000  -0.000005  -0.000007  -0.000001   0.000111
    25  H   -0.000000   0.000000  -0.000000   0.000000  -0.000000  -0.000000
    26  H    0.000000  -0.000000   0.000000   0.000000  -0.000000   0.000000
    27  H   -0.000000   0.000000  -0.000000  -0.000001   0.000000   0.000000
    28  H    0.000003  -0.000001   0.000040   0.000131  -0.000003  -0.000001
              13         14         15         16         17         18
     1  C   -0.000558  -0.019463   0.014199  -0.056508   0.239872  -0.163996
     2  C   -0.000322  -0.000061  -0.000190  -0.004945  -0.036046   0.303404
     3  O   -0.000044  -0.000061  -0.000078   0.019549   0.005045  -0.122021
     4  C   -0.045735  -0.014509  -0.051760   0.442171  -0.067788   0.016981
     5  C   -0.000073  -0.000626   0.000849  -0.003257  -0.000136   0.000178
     6  H    0.000010   0.000149  -0.000611   0.000077   0.000015  -0.000005
     7  H    0.000011  -0.000022   0.000141   0.000758   0.000009  -0.000016
     8  H   -0.000452   0.000136   0.002960  -0.000980  -0.000052   0.000034
     9  N    0.004932  -0.003844  -0.006173  -0.034257   0.003590  -0.001332
    10  H   -0.000225   0.000259   0.000376  -0.003118   0.000643  -0.000445
    11  H    0.000029   0.001146  -0.000548   0.002445   0.001260  -0.000052
    12  C    0.417663   0.407157   0.423052  -0.028266  -0.006567  -0.000471
    13  H    0.512311  -0.021183  -0.018339  -0.000646   0.001343  -0.000019
    14  H   -0.021183   0.522518  -0.021873   0.003647   0.009877  -0.000289
    15  H   -0.018339  -0.021873   0.528029  -0.006661   0.001562   0.000044
    16  H   -0.000646   0.003647  -0.006661   0.501670   0.006158   0.000200
    17  Cl   0.001343   0.009877   0.001562   0.006158  17.012262   0.005888
    18  C   -0.000019  -0.000289   0.000044   0.000200   0.005888   5.346809
    19  C   -0.000013   0.000046  -0.000003   0.000028  -0.012372   0.387319
    20  C   -0.000001   0.000000  -0.000000   0.000023   0.002782   0.002446
    21  C    0.000000   0.000000   0.000000  -0.000003  -0.000931  -0.100106
    22  C   -0.000000  -0.000000  -0.000000   0.000010   0.000941   0.037005
    23  C   -0.000001   0.000015   0.000001  -0.000695  -0.001173   0.241398
    24  H    0.000038  -0.000013   0.000001  -0.000078   0.006057  -0.059852
    25  H   -0.000000  -0.000000   0.000000  -0.000000  -0.000006   0.012743
    26  H   -0.000000  -0.000000   0.000000   0.000000  -0.000004  -0.003660
    27  H    0.000000  -0.000000  -0.000000   0.000000   0.000003   0.015261
    28  H   -0.000000   0.000001   0.000000  -0.000084  -0.000195  -0.082671
              19         20         21         22         23         24
     1  C    0.012581  -0.005126   0.002516  -0.006373   0.053366   0.006309
     2  C   -0.082282   0.015334  -0.006895   0.008293  -0.132118  -0.011418
     3  O   -0.000370  -0.001034   0.000696  -0.001449   0.040803   0.000040
     4  C    0.001967   0.000051   0.000004  -0.000028  -0.003500  -0.000058
     5  C   -0.000000  -0.000000  -0.000000   0.000000  -0.000033  -0.000000
     6  H    0.000000   0.000000   0.000000  -0.000000   0.000000  -0.000000
     7  H    0.000000   0.000000   0.000000   0.000000   0.000003  -0.000000
     8  H   -0.000001  -0.000000  -0.000000   0.000000  -0.000004   0.000000
     9  N    0.000027   0.000007   0.000000  -0.000006   0.000408  -0.000005
    10  H   -0.000031   0.000003   0.000001   0.000003   0.000057  -0.000007
    11  H    0.000001  -0.000000  -0.000000   0.000001  -0.000012  -0.000001
    12  C    0.000097  -0.000000   0.000000  -0.000001  -0.000116   0.000111
    13  H   -0.000013  -0.000001   0.000000  -0.000000  -0.000001   0.000038
    14  H    0.000046   0.000000   0.000000  -0.000000   0.000015  -0.000013
    15  H   -0.000003  -0.000000   0.000000  -0.000000   0.000001   0.000001
    16  H    0.000028   0.000023  -0.000003   0.000010  -0.000695  -0.000078
    17  Cl  -0.012372   0.002782  -0.000931   0.000941  -0.001173   0.006057
    18  C    0.387319   0.002446  -0.100106   0.037005   0.241398  -0.059852
    19  C    5.143107   0.404294   0.033926  -0.071074   0.029906   0.448287
    20  C    0.404294   5.008141   0.406690   0.018373  -0.074875  -0.044584
    21  C    0.033926   0.406690   5.001424   0.397603   0.042678   0.009295
    22  C   -0.071074   0.018373   0.397603   5.016772   0.386167  -0.003404
    23  C    0.029906  -0.074875   0.042678   0.386167   5.237406   0.010427
    24  H    0.448287  -0.044584   0.009295  -0.003404   0.010427   0.487251
    25  H   -0.058163   0.453511  -0.055037   0.010009  -0.003195  -0.006136
    26  H    0.011129  -0.055386   0.451258  -0.055545   0.011021  -0.000054
    27  H   -0.004315   0.011193  -0.057822   0.456932  -0.060751   0.000019
    28  H    0.012196  -0.004338   0.012247  -0.049618   0.462465  -0.000016
              25         26         27         28
     1  C    0.000046   0.000005  -0.000010   0.003402
     2  C   -0.000162   0.000054  -0.000165  -0.005031
     3  O    0.000007   0.000000  -0.000080   0.013258
     4  C   -0.000003   0.000000   0.000000  -0.000236
     5  C   -0.000000  -0.000000   0.000000  -0.000008
     6  H   -0.000000   0.000000  -0.000000   0.000000
     7  H   -0.000000   0.000000  -0.000000   0.000003
     8  H    0.000000  -0.000000   0.000000  -0.000001
     9  N   -0.000000   0.000000  -0.000000   0.000040
    10  H    0.000000   0.000000  -0.000001   0.000131
    11  H   -0.000000  -0.000000   0.000000  -0.000003
    12  C   -0.000000   0.000000   0.000000  -0.000001
    13  H   -0.000000  -0.000000   0.000000  -0.000000
    14  H   -0.000000  -0.000000  -0.000000   0.000001
    15  H    0.000000   0.000000  -0.000000   0.000000
    16  H   -0.000000   0.000000   0.000000  -0.000084
    17  Cl  -0.000006  -0.000004   0.000003  -0.000195
    18  C    0.012743  -0.003660   0.015261  -0.082671
    19  C   -0.058163   0.011129  -0.004315   0.012196
    20  C    0.453511  -0.055386   0.011193  -0.004338
    21  C   -0.055037   0.451258  -0.057822   0.012247
    22  C    0.010009  -0.055545   0.456932  -0.049618
    23  C   -0.003195   0.011021  -0.060751   0.462465
    24  H   -0.006136  -0.000054   0.000019  -0.000016
    25  H    0.509050  -0.006512  -0.000064   0.000028
    26  H   -0.006512   0.508325  -0.006576  -0.000045
    27  H   -0.000064  -0.006576   0.510265  -0.007351
    28  H    0.000028  -0.000045  -0.007351   0.505029
 Mulliken charges:
               1
     1  C   -0.174687
     2  C    0.317224
     3  O   -0.510437
     4  C   -0.041830
     5  C   -0.270822
     6  H    0.149503
     7  H    0.150124
     8  H    0.132860
     9  N   -0.385829
    10  H    0.277579
    11  H    0.279197
    12  C   -0.318429
    13  H    0.151274
    14  H    0.136993
    15  H    0.135022
    16  H    0.162763
    17  Cl  -0.172041
    18  C    0.165222
    19  C   -0.256289
    20  C   -0.137507
    21  C   -0.137547
    22  C   -0.144613
    23  C   -0.239649
    24  H    0.157792
    25  H    0.143882
    26  H    0.145989
    27  H    0.143458
    28  H    0.140799
 Sum of Mulliken charges =  -0.00000
 Mulliken charges with hydrogens summed into heavy atoms:
               1
     1  C   -0.174687
     2  C    0.317224
     3  O   -0.510437
     4  C    0.120933
     5  C    0.161665
     9  N    0.170947
    12  C    0.104860
    17  Cl  -0.172041
    18  C    0.165222
    19  C   -0.098497
    20  C    0.006375
    21  C    0.008442
    22  C   -0.001155
    23  C   -0.098851
 APT charges:
               1
     1  C   -0.391926
     2  C   -0.023571
     3  O   -0.234174
     4  C   -0.030789
     5  C   -1.563706
     6  H    0.816088
     7  H    0.429747
     8  H    0.353443
     9  N   -0.359262
    10  H    0.135678
    11  H    0.568989
    12  C   -1.444651
    13  H    0.395144
    14  H    0.329414
    15  H    0.680829
    16  H    0.419520
    17  Cl  -0.017266
    18  C   -0.304544
    19  C   -0.508595
    20  C   -0.616294
    21  C   -0.628264
    22  C   -0.614536
    23  C   -0.560809
    24  H    0.260441
    25  H    0.747999
    26  H    1.026708
    27  H    0.813497
    28  H    0.320888
 Sum of APT charges =  -0.00000
 APT charges with hydrogens summed into heavy atoms:
               1
     1  C   -0.391926
     2  C   -0.023571
     3  O   -0.234174
     4  C    0.388731
     5  C    0.035572
     9  N    0.345405
    12  C   -0.039263
    17  Cl  -0.017266
    18  C   -0.304544
    19  C   -0.248154
    20  C    0.131705
    21  C    0.398444
    22  C    0.198961
    23  C   -0.239921
 Electronic spatial extent (au):  <R**2>=           3883.2651
 Charge=             -0.0000 electrons
 Dipole moment (field-independent basis, Debye):
    X=              6.0326    Y=             -0.0937    Z=              2.2912  Tot=              6.4538
 Quadrupole moment (field-independent basis, Debye-Ang):
   XX=            -56.6459   YY=            -92.6955   ZZ=            -90.9376
   XY=             -5.2909   XZ=              2.8220   YZ=            -10.1555
 Traceless Quadrupole moment (field-independent basis, Debye-Ang):
   XX=             23.4471   YY=            -12.6025   ZZ=            -10.8446
   XY=             -5.2909   XZ=              2.8220   YZ=            -10.1555
 Octapole moment (field-independent basis, Debye-Ang**2):
  XXX=             79.5218  YYY=             -1.9966  ZZZ=              8.9627  XYY=             12.2931
  XXY=            -18.0426  XXZ=             20.4177  XZZ=             24.3786  YZZ=              2.8927
  YYZ=             10.5010  XYZ=              5.2665
 Hexadecapole moment (field-independent basis, Debye-Ang**3):
 XXXX=          -3303.7297 YYYY=           -951.8998 ZZZZ=           -324.2887 XXXY=           -108.4781
 XXXZ=             22.4412 YYYX=            -33.3883 YYYZ=            -29.3301 ZZZX=             19.1632
 ZZZY=             -1.9222 XXYY=           -745.1934 XXZZ=           -696.9190 YYZZ=           -210.3884
 XXYZ=            -55.2953 YYXZ=             -2.2702 ZZXY=             -5.3365
 N-N= 9.713498048940D+02 E-N=-4.336030673108D+03  KE= 1.014415063785D+03
  Exact polarizability:   0.000   0.000   0.000   0.000   0.000   0.000
 Approx polarizability: 205.713  -6.886 181.738  -4.702  -8.994 140.681
   1 Symmetry operations used in ECPInt.
 ECPInt:  NShTT=   22578 NPrTT=   69370 LenC2=   20323 LenP2D=   45799.
 LDataN:  DoStor=T MaxTD1= 8 Len=  415
 D2PCM: PCM CHGder 2nd derivatives, FixD1E=F FixD2E=F DoIter=F DoCFld=F I1PDM=0
 Calling FoFJK, ICntrl=    100147 FMM=F ISym2X=0 I1Cent= 0 IOpClX= 0 NMat=1 NMatS=1 NMatT=0.
 ***** Axes restored to original set *****
 -------------------------------------------------------------------
 Center     Atomic                   Forces (Hartrees/Bohr)
 Number     Number              X              Y              Z
 -------------------------------------------------------------------
      1        6          -0.000001510   -0.000001693    0.000001260
      2        6           0.000002933   -0.000002389   -0.000003664
      3        8          -0.000000770    0.000005101    0.000002815
      4        6          -0.000304157    0.000433038   -0.000440896
      5        6           0.000001904   -0.000002338   -0.000001199
      6        1          -0.000002414   -0.000004023    0.000001496
      7        1          -0.000000288    0.000000242    0.000002814
      8        1          -0.000000466   -0.000000291   -0.000000208
      9        7           0.000303730   -0.000443845    0.000443013
     10        1           0.000000108    0.000001356   -0.000001814
     11        1           0.000000848   -0.000002029   -0.000004201
     12        6           0.000002880    0.000004292   -0.000001698
     13        1           0.000001184   -0.000002923    0.000002091
     14        1          -0.000000497   -0.000001238   -0.000000733
     15        1          -0.000001111   -0.000000958    0.000000522
     16        1          -0.000002066    0.000004377    0.000002923
     17       17          -0.000000370    0.000001063    0.000000591
     18        6           0.000001813   -0.000003180    0.000003115
     19        6           0.000003715   -0.000001639   -0.000001612
     20        6          -0.000003565    0.000002833    0.000000475
     21        6          -0.000002915    0.000005522   -0.000002634
     22        6          -0.000000146   -0.000000699    0.000000948
     23        6          -0.000004021    0.000005902   -0.000002665
     24        1           0.000001386    0.000002930   -0.000000699
     25        1           0.000001601   -0.000000221    0.000000426
     26        1           0.000001416    0.000000751   -0.000000527
     27        1          -0.000000469    0.000000977   -0.000000165
     28        1           0.000001245   -0.000000917    0.000000222
 -------------------------------------------------------------------
 Cartesian Forces:  Max     0.000443845 RMS     0.000106924
 FormGI is forming the generalized inverse of G from B-inverse, IUseBI=4.

 GradGradGradGradGradGradGradGradGradGradGradGradGradGradGradGradGradGrad
 Berny optimization.
 Internal  Forces:  Max     0.000693987 RMS     0.000058467
 Search for a saddle point.
 Step number   1 out of a maximum of   70
 All quantities printed in internal units (Hartrees-Bohrs-Radians)
 Swapping is turned off.
 Second derivative matrix not updated -- analytic derivatives used.
 ITU=  0
     Eigenvalues ---   -0.02659  -0.00123   0.00199   0.00209   0.00304
     Eigenvalues ---    0.00972   0.01231   0.01451   0.01579   0.01621
     Eigenvalues ---    0.01760   0.01840   0.02196   0.02426   0.02581
     Eigenvalues ---    0.02730   0.02766   0.02913   0.02969   0.03531
     Eigenvalues ---    0.04185   0.04292   0.04483   0.04706   0.04858
     Eigenvalues ---    0.04917   0.05109   0.05565   0.08703   0.08934
     Eigenvalues ---    0.10868   0.11316   0.11698   0.11911   0.12240
     Eigenvalues ---    0.12351   0.12649   0.12974   0.13340   0.15298
     Eigenvalues ---    0.15728   0.15924   0.16609   0.17606   0.18094
     Eigenvalues ---    0.19164   0.19341   0.19530   0.20717   0.22874
     Eigenvalues ---    0.25645   0.27542   0.29358   0.32279   0.33248
     Eigenvalues ---    0.34053   0.34629   0.34638   0.34875   0.34928
     Eigenvalues ---    0.35233   0.36051   0.36134   0.36299   0.36389
     Eigenvalues ---    0.36443   0.36748   0.37175   0.40852   0.42166
     Eigenvalues ---    0.42434   0.46170   0.46228   0.47832   0.48023
     Eigenvalues ---    0.49196   0.51981   0.72156
 Eigenvectors required to have negative eigenvalues:
                          R6        D7        D32       D31       D30
   1                    0.87824  -0.16100   0.13744   0.13581   0.13529
                          D10       R2        A11       A10       R1
   1                   -0.13455  -0.13069  -0.12007  -0.11212   0.10074
 RFO step:  Lambda0=1.388322438D-05 Lambda=-1.23406351D-03.
 Linear search not attempted -- option 19 set.
 Iteration  1 RMS(Cart)=  0.00813639 RMS(Int)=  0.00008448
 Iteration  2 RMS(Cart)=  0.00008816 RMS(Int)=  0.00000217
 Iteration  3 RMS(Cart)=  0.00000001 RMS(Int)=  0.00000217
 Variable       Old X    -DE/DX   Delta X   Delta X   Delta X     New X
                                 (Linear)    (Quad)   (Total)
    R1        2.70275  -0.00000   0.00000  -0.00238  -0.00238   2.70037
    R2        2.61696   0.00000   0.00000   0.00309   0.00309   2.62005
    R3        3.32886   0.00000   0.00000   0.00039   0.00039   3.32925
    R4        2.34188  -0.00001   0.00000   0.00120   0.00120   2.34308
    R5        2.83627  -0.00000   0.00000   0.00022   0.00022   2.83649
    R6        3.82268   0.00069   0.00000  -0.01684  -0.01684   3.80584
    R7        2.82397   0.00000   0.00000   0.00048   0.00048   2.82444
    R8        2.04798  -0.00001   0.00000   0.00017   0.00017   2.04814
    R9        2.05677  -0.00000   0.00000   0.00004   0.00004   2.05681
   R10        2.05620  -0.00000   0.00000  -0.00025  -0.00025   2.05595
   R11        2.06532   0.00000   0.00000  -0.00036  -0.00036   2.06496
   R12        2.76629   0.00000   0.00000   0.00045   0.00045   2.76674
   R13        1.90967  -0.00000   0.00000   0.00019   0.00019   1.90986
   R14        1.90985  -0.00000   0.00000   0.00018   0.00018   1.91003
   R15        2.06476  -0.00000   0.00000  -0.00012  -0.00012   2.06463
   R16        2.05754  -0.00000   0.00000   0.00001   0.00001   2.05755
   R17        2.05722  -0.00000   0.00000   0.00000   0.00000   2.05723
   R18        2.62966   0.00000   0.00000  -0.00001  -0.00001   2.62966
   R19        2.62928  -0.00000   0.00000  -0.00000  -0.00000   2.62928
   R20        2.62004   0.00000   0.00000   0.00005   0.00005   2.62010
   R21        2.04611   0.00000   0.00000   0.00002   0.00002   2.04613
   R22        2.62329  -0.00000   0.00000  -0.00001  -0.00001   2.62329
   R23        2.04602  -0.00000   0.00000   0.00001   0.00001   2.04603
   R24        2.62316   0.00000   0.00000   0.00001   0.00001   2.62317
   R25        2.04610  -0.00000   0.00000   0.00000   0.00000   2.04610
   R26        2.61976   0.00000   0.00000   0.00004   0.00004   2.61980
   R27        2.04604   0.00000   0.00000   0.00002   0.00002   2.04606
   R28        2.04627   0.00000   0.00000   0.00002   0.00002   2.04629
    A1        2.09324  -0.00000   0.00000  -0.00050  -0.00050   2.09275
    A2        2.09579   0.00000   0.00000   0.00073   0.00073   2.09652
    A3        2.07745   0.00000   0.00000  -0.00060  -0.00060   2.07684
    A4        2.10926  -0.00000   0.00000   0.00036   0.00036   2.10963
    A5        2.11185   0.00000   0.00000   0.00010   0.00010   2.11195
    A6        2.06206   0.00000   0.00000  -0.00046  -0.00046   2.06160
    A7        1.88914  -0.00000   0.00000  -0.00020  -0.00020   1.88895
    A8        2.15288  -0.00000   0.00000  -0.00183  -0.00184   2.15104
    A9        1.97496   0.00000   0.00000  -0.00116  -0.00117   1.97379
   A10        1.73826   0.00001   0.00000   0.00347   0.00347   1.74173
   A11        1.55001  -0.00000   0.00000   0.00482   0.00482   1.55483
   A12        2.02093   0.00000   0.00000  -0.00123  -0.00125   2.01968
   A13        1.89700  -0.00000   0.00000   0.00057   0.00057   1.89757
   A14        1.88898   0.00000   0.00000   0.00056   0.00056   1.88954
   A15        1.94279  -0.00000   0.00000   0.00057   0.00057   1.94335
   A16        1.88500   0.00000   0.00000   0.00039   0.00039   1.88538
   A17        1.92964  -0.00000   0.00000  -0.00192  -0.00192   1.92772
   A18        1.91899  -0.00000   0.00000  -0.00011  -0.00011   1.91888
   A19        2.01805   0.00001   0.00000   0.00083   0.00083   2.01888
   A20        1.73703  -0.00000   0.00000   0.00114   0.00114   1.73816
   A21        1.86329  -0.00000   0.00000  -0.00139  -0.00139   1.86189
   A22        1.96027  -0.00000   0.00000  -0.00055  -0.00055   1.95972
   A23        1.97127  -0.00000   0.00000   0.00001   0.00001   1.97129
   A24        1.89656   0.00000   0.00000   0.00002   0.00002   1.89659
   A25        1.89720  -0.00000   0.00000  -0.00027  -0.00027   1.89693
   A26        1.95130  -0.00000   0.00000  -0.00004  -0.00004   1.95126
   A27        1.94168   0.00000   0.00000   0.00035   0.00035   1.94203
   A28        1.88163   0.00000   0.00000   0.00009   0.00009   1.88172
   A29        1.88213   0.00000   0.00000  -0.00012  -0.00012   1.88201
   A30        1.90762   0.00000   0.00000  -0.00002  -0.00002   1.90760
   A31        2.12487  -0.00000   0.00000   0.00006   0.00006   2.12493
   A32        2.07474   0.00000   0.00000   0.00014   0.00014   2.07488
   A33        2.08160  -0.00000   0.00000  -0.00018  -0.00018   2.08142
   A34        2.10012  -0.00000   0.00000   0.00011   0.00011   2.10023
   A35        2.08982   0.00000   0.00000  -0.00009  -0.00009   2.08973
   A36        2.09320  -0.00000   0.00000  -0.00002  -0.00002   2.09317
   A37        2.09622   0.00000   0.00000   0.00002   0.00002   2.09624
   A38        2.09108   0.00000   0.00000  -0.00000  -0.00000   2.09108
   A39        2.09588  -0.00000   0.00000  -0.00002  -0.00002   2.09587
   A40        2.09159  -0.00000   0.00000  -0.00009  -0.00009   2.09150
   A41        2.09552   0.00000   0.00000   0.00005   0.00005   2.09558
   A42        2.09607  -0.00000   0.00000   0.00003   0.00003   2.09610
   A43        2.09432  -0.00000   0.00000   0.00002   0.00002   2.09434
   A44        2.09623   0.00000   0.00000  -0.00002  -0.00002   2.09622
   A45        2.09262  -0.00000   0.00000  -0.00001  -0.00001   2.09261
   A46        2.10223   0.00000   0.00000   0.00012   0.00012   2.10234
   A47        2.08157  -0.00000   0.00000  -0.00004  -0.00004   2.08154
   A48        2.09938  -0.00000   0.00000  -0.00008  -0.00008   2.09931
    D1        0.12734   0.00000   0.00000  -0.00355  -0.00355   0.12378
    D2       -3.00785   0.00000   0.00000  -0.00385  -0.00385  -3.01170
    D3       -2.81705   0.00000   0.00000  -0.00133  -0.00133  -2.81838
    D4        0.33095   0.00000   0.00000  -0.00162  -0.00162   0.32932
    D5       -1.28901   0.00000   0.00000   0.00210   0.00210  -1.28692
    D6        2.98221  -0.00000   0.00000  -0.00125  -0.00125   2.98096
    D7        0.39920   0.00000   0.00000   0.00712   0.00712   0.40632
    D8        1.65744   0.00000   0.00000   0.00004   0.00004   1.65749
    D9       -0.35452  -0.00000   0.00000  -0.00331  -0.00331  -0.35782
   D10       -2.93752   0.00000   0.00000   0.00506   0.00506  -2.93246
   D11        0.85894   0.00000   0.00000   0.00252   0.00252   0.86146
   D12       -2.35053   0.00000   0.00000   0.00281   0.00281  -2.34772
   D13       -2.27641   0.00000   0.00000   0.00223   0.00223  -2.27418
   D14        0.79731  -0.00000   0.00000   0.00251   0.00251   0.79982
   D15        2.72854  -0.00000   0.00000  -0.00213  -0.00213   2.72641
   D16        0.62548  -0.00000   0.00000  -0.00261  -0.00261   0.62287
   D17       -1.34533  -0.00000   0.00000  -0.00265  -0.00265  -1.34798
   D18       -1.28573  -0.00000   0.00000  -0.00238  -0.00238  -1.28812
   D19        2.89439  -0.00000   0.00000  -0.00286  -0.00286   2.89153
   D20        0.92358  -0.00000   0.00000  -0.00290  -0.00291   0.92068
   D21        0.73826   0.00000   0.00000  -0.00257  -0.00256   0.73569
   D22       -1.36481   0.00000   0.00000  -0.00304  -0.00304  -1.36785
   D23        2.94757   0.00000   0.00000  -0.00309  -0.00309   2.94449
   D24       -1.21011  -0.00000   0.00000   0.00303   0.00303  -1.20708
   D25        0.86496  -0.00000   0.00000   0.00295   0.00295   0.86790
   D26        3.00318   0.00000   0.00000   0.00314   0.00314   3.00632
   D27        2.98872   0.00000   0.00000   0.00138   0.00138   2.99010
   D28       -1.21939   0.00000   0.00000   0.00130   0.00130  -1.21810
   D29        0.91883   0.00000   0.00000   0.00149   0.00149   0.92032
   D30        1.35962  -0.00000   0.00000  -0.00553  -0.00553   1.35410
   D31       -2.84849  -0.00000   0.00000  -0.00561  -0.00561  -2.85410
   D32       -0.71027  -0.00000   0.00000  -0.00541  -0.00541  -0.71569
   D33        2.25492   0.00000   0.00000   0.02424   0.02424   2.27916
   D34       -2.05113   0.00000   0.00000   0.02586   0.02586  -2.02527
   D35        0.10135   0.00000   0.00000   0.02547   0.02547   0.12682
   D36       -1.91796  -0.00000   0.00000   0.02403   0.02403  -1.89393
   D37        0.05918  -0.00000   0.00000   0.02565   0.02565   0.08483
   D38        2.21166  -0.00000   0.00000   0.02526   0.02526   2.23692
   D39        0.16184   0.00000   0.00000   0.02324   0.02324   0.18508
   D40        2.13897  -0.00000   0.00000   0.02486   0.02486   2.16384
   D41       -1.99173   0.00000   0.00000   0.02447   0.02447  -1.96726
   D42        3.07116  -0.00000   0.00000   0.00040   0.00040   3.07156
   D43       -0.05923  -0.00000   0.00000   0.00035   0.00035  -0.05887
   D44       -0.00229   0.00000   0.00000   0.00010   0.00010  -0.00220
   D45       -3.13268  -0.00000   0.00000   0.00005   0.00005  -3.13263
   D46       -3.09344   0.00000   0.00000  -0.00027  -0.00027  -3.09372
   D47        0.05031   0.00000   0.00000  -0.00035  -0.00035   0.04996
   D48       -0.01802  -0.00000   0.00000   0.00001   0.00001  -0.01800
   D49        3.12574  -0.00000   0.00000  -0.00006  -0.00006   3.12567
   D50        0.01839  -0.00000   0.00000  -0.00013  -0.00013   0.01826
   D51       -3.12555  -0.00000   0.00000  -0.00007  -0.00007  -3.12561
   D52       -3.13443   0.00000   0.00000  -0.00009  -0.00009  -3.13452
   D53        0.00482   0.00000   0.00000  -0.00002  -0.00002   0.00480
   D54       -0.01421   0.00000   0.00000   0.00005   0.00005  -0.01416
   D55        3.13078   0.00000   0.00000   0.00009   0.00009   3.13087
   D56        3.12973   0.00000   0.00000  -0.00001  -0.00001   3.12972
   D57       -0.00847   0.00000   0.00000   0.00002   0.00002  -0.00844
   D58       -0.00601  -0.00000   0.00000   0.00006   0.00006  -0.00595
   D59       -3.14107  -0.00000   0.00000   0.00003   0.00003  -3.14104
   D60        3.13218  -0.00000   0.00000   0.00003   0.00003   3.13220
   D61       -0.00288  -0.00000   0.00000  -0.00001  -0.00001  -0.00288
   D62        0.02223   0.00000   0.00000  -0.00009  -0.00009   0.02214
   D63       -3.12155   0.00000   0.00000  -0.00002  -0.00002  -3.12156
   D64       -3.12589   0.00000   0.00000  -0.00006  -0.00006  -3.12594
   D65        0.01352   0.00000   0.00000   0.00002   0.00002   0.01354
         Item               Value     Threshold  Converged?
 Maximum Force            0.000694     0.000450     NO 
 RMS     Force            0.000058     0.000300     YES
 Maximum Displacement     0.044483     0.001800     NO 
 RMS     Displacement     0.008135     0.001200     NO 
 Predicted change in Energy= 2.236073D-06
 GradGradGradGradGradGradGradGradGradGradGradGradGradGradGradGradGradGrad

                          Input orientation:                          
 ---------------------------------------------------------------------
 Center     Atomic      Atomic             Coordinates (Angstroms)
 Number     Number       Type             X           Y           Z
 ---------------------------------------------------------------------
      1          6           0        0.830947    0.503786   -0.214730
      2          6           0       -0.095531   -0.555218   -0.463967
      3          8           0        0.291946   -1.651198   -0.895312
      4          6           0        2.157735    0.364656   -0.592324
      5          6           0        4.233424   -1.600349    0.172387
      6          1           0        5.063483   -1.531219    0.873009
      7          1           0        4.017255   -2.650839   -0.010369
      8          1           0        4.544960   -1.149788   -0.773127
      9          7           0        3.045249   -0.915158    0.684561
     10          1           0        2.276572   -1.550838    0.847252
     11          1           0        3.223884   -0.399164    1.535115
     12          6           0        3.143101    1.487773   -0.552510
     13          1           0        2.878099    2.213479   -1.325042
     14          1           0        3.130598    2.002811    0.406698
     15          1           0        4.152278    1.135224   -0.758424
     16          1           0        2.299779   -0.357689   -1.387769
     17         17           0        0.376440    1.848955    0.828226
     18          6           0       -1.564863   -0.370760   -0.218903
     19          6           0       -2.256380    0.732296   -0.710327
     20          6           0       -3.628479    0.832296   -0.537949
     21          6           0       -4.318390   -0.159122    0.146282
     22          6           0       -3.633671   -1.259679    0.643090
     23          6           0       -2.265402   -1.370109    0.449241
     24          1           0       -1.720148    1.510483   -1.238775
     25          1           0       -4.160177    1.687015   -0.936727
[...]
 7667,0.00019151,-0.00088654,0.03219904,-0.02574564,0.04826658,-0.01548
 976,0.00656563,0.04447492,0.10997532,-0.14274309,-0.08991357,-0.225557
 21,0.29632425,-0.00049072,-0.00023697,-0.00000958,0.00291648,-0.004161
 71,0.00211424,0.00127949,0.00152536,-0.00048929,0.00048895,-0.00025804
 ,0.00004684,0.00004765,0.00003303,-0.00007515,-0.00003990,0.00002010,0
 .00000831,-0.00000194,-0.00000237,0.00001040,-0.00000410,-0.00000365,0
 .00000297,-0.00024230,0.00020830,-0.00019447,-0.00001440,-0.00002209,-
 0.00000601,0.00000355,0.00000555,0.00001299,-0.00005213,0.00004280,0.0
 0005267,-0.00001698,-0.00001853,-0.00001572,0.00003333,0.00000870,-0.0
 0000068,-0.00003318,-0.00000080,0.00001517,-0.00005906,0.00002927,-0.0
 0004235,-0.00108894,-0.00052715,-0.00023579,-0.02712038,-0.06759559,0.
 04634127,-0.05846886,0.03432833,-0.00888068,0.07197464,0.01728905,-0.0
 2257434,-0.18189759,0.05490438,-0.00930426,0.67729335,-0.00090986,0.00
 050387,-0.00038695,-0.00020189,-0.00175435,0.00456992,-0.00070665,0.00
 094407,-0.00015352,-0.00005766,0.00002359,-0.00027448,0.00002403,0.000
 01460,-0.00004242,-0.00001932,0.00000686,0.00000577,0.00000152,0.00000
 065,0.00000745,-0.00000421,-0.00000129,0.00000054,-0.00014291,0.000016
 98,-0.00005132,0.00001968,-0.00001763,0.00003763,-0.00001205,0.0000078
 3,-0.00000529,0.00008371,-0.00007668,0.00006975,-0.00002777,-0.0000149
 9,0.00000771,-0.00001051,0.00000543,-0.00000503,0.00001199,0.00000248,
 0.00000338,0.00000770,0.00006196,-0.00004925,0.00049239,0.00018924,0.0
 0002069,-0.02198739,0.03924417,-0.01165745,0.03438083,-0.02273698,0.00
 231107,-0.02923724,-0.04175393,0.03538542,0.11653587,-0.24555629,0.082
 86181,-0.02007548,0.57692039,0.00108674,-0.00073673,-0.00070722,0.0034
 4116,0.00664477,0.00441366,-0.00167151,-0.00003933,-0.00015416,0.00021
 145,0.00048056,0.00007119,-0.00000624,-0.00000634,0.00000073,0.0000030
 6,-0.00000299,0.00000037,0.00000107,0.00000150,0.00000038,-0.00000197,
 0.00000100,-0.00000131,-0.00001373,-0.00004211,0.00000989,0.00003651,0
 .00000491,0.00002215,-0.00000835,0.00000549,-0.00000896,0.00009960,-0.
 00006991,-0.00002948,-0.00000399,0.00000271,-0.00000370,0.00000126,-0.
 00000289,0.00000028,0.00003351,0.00003162,-0.00000550,-0.00000944,-0.0
 0000728,0.00000233,0.00001403,-0.00014044,-0.00005309,0.01938653,-0.00
 621431,0.00715422,-0.00938593,0.00196009,-0.00678049,0.00399378,0.0261
 1885,-0.00787733,-0.04608273,0.09564544,-0.11457925,-0.10124528,-0.256
 25646,0.31611222,-0.00454724,0.00315436,0.00111049,-0.02188169,-0.0209
 5077,0.01925142,-0.00044144,-0.00333592,-0.00130393,-0.00003388,-0.001
 13510,-0.00072853,0.00013419,0.00007223,-0.00022456,-0.00010513,0.0000
 4279,0.00002853,0.00000383,-0.00000112,0.00003461,-0.00002235,-0.00000
 823,0.00000754,-0.00059670,0.00016264,-0.00024116,0.00010014,-0.000096
 38,0.00013902,-0.00003766,0.00004186,-0.00000463,-0.00007693,0.0000343
 5,0.00013912,-0.00005198,-0.00003519,0.00002281,-0.00004367,-0.0000037
 9,-0.00003250,-0.00006935,-0.00007345,0.00000540,0.00007580,0.00011686
 ,-0.00014928,0.00128641,0.00019255,-0.00000683,-0.17139292,-0.03339073
 ,0.04511389,0.07020202,-0.02818886,0.00372449,-0.05890734,-0.02462178,
 0.02451497,-0.02547265,0.07569957,-0.03790172,-0.33527330,-0.00590247,
 0.06049476,0.68459150,0.00442676,-0.00001790,-0.00030099,-0.00860761,0
 .01074999,-0.00097925,0.00270118,-0.00402823,-0.00030202,-0.00180196,0
 .00137746,-0.00009425,-0.00019946,-0.00009515,0.00030739,0.00015822,-0
 .00007692,-0.00003443,0.00000094,0.00000219,-0.00004738,0.00003058,0.0
 0001017,-0.00001210,0.00097756,-0.00060811,0.00068069,-0.00011276,0.00
 011526,-0.00017117,0.00004440,-0.00004273,-0.00001541,0.00009183,-0.00
 004010,-0.00012222,0.00008115,0.00004804,0.00002150,0.00000462,0.00001
 248,0.00003855,0.00009425,0.00003796,0.00000689,0.00002740,-0.00017243
 ,0.00019518,0.00078351,0.00072446,0.00050205,-0.08789064,-0.21369233,0
 .09965334,0.01578625,-0.04122020,0.02671934,-0.02432813,-0.01182877,0.
 00755775,0.02932557,0.02265945,-0.01484866,0.05722353,-0.11871063,0.01
 950420,-0.08309325,0.58566562,-0.00063604,-0.00075503,0.00000586,0.007
 51859,-0.00041972,-0.00092199,0.00062203,0.00370305,0.00039333,0.00006
 690,-0.00007301,-0.00003781,0.00001360,0.00001596,-0.00001909,-0.00001
 102,0.00000525,0.00000225,-0.00000142,-0.00000163,0.00000332,0.0000016
 1,-0.00000143,0.00000038,-0.00005010,0.00005439,-0.00004252,-0.0000392
 0,0.00000126,-0.00001652,0.00000877,-0.00000276,0.00000692,-0.00010273
 ,0.00004011,0.00002661,0.00000458,0.00000045,-0.00000764,0.00002700,0.
 00001801,0.00000993,-0.00003185,-0.00000428,0.00002264,-0.00003971,0.0
 0002350,0.00002250,-0.00080668,-0.00017782,0.00022703,0.07627466,0.090
 22667,-0.13688820,-0.02243257,0.03612241,-0.00671798,0.02440249,0.0079
 9892,-0.01698371,-0.01018443,-0.02312322,0.02418905,0.02570227,0.03059
 583,-0.09113507,-0.06931585,-0.23921378,0.29844864,0.00022386,-0.00029
 330,-0.00010674,0.00006687,0.00039184,-0.00061404,0.00043769,-0.000482
 69,-0.00016827,-0.00058888,0.00018140,0.00000809,-0.00006060,-0.000035
 56,0.00009729,0.00004944,-0.00002385,-0.00001222,0.00000098,0.00000065
 ,-0.00001443,0.00000828,0.00000364,-0.00000301,0.00032372,-0.00021517,
 0.00021681,-0.00000663,0.00003344,-0.00002806,0.00000839,-0.00001503,-
 0.00000513,-0.00001353,0.00000775,-0.00003740,0.00002837,0.00001708,0.
 00000697,0.00000488,0.00000411,0.00001628,0.00001915,0.00000383,0.0000
 0368,0.00002081,-0.00005062,0.00004228,-0.00200102,-0.00056372,-0.0014
 0456,0.01143064,0.01103096,-0.00837186,-0.12797060,-0.09520149,0.07494
 700,-0.00990508,-0.02312787,0.01656624,-0.00510860,0.00201632,0.001176
 58,-0.00080534,0.00062478,-0.00040806,-0.00084881,0.00335009,-0.000647
 56,0.13378389,-0.00020779,0.00002791,-0.00015102,-0.00274910,-0.000479
 07,-0.00124939,0.00094373,-0.00063995,-0.00007241,0.00071396,-0.000249
 71,0.00011907,0.00004425,0.00004312,-0.00007739,-0.00003980,0.00001767
 ,0.00001045,-0.00000176,-0.00000165,0.00000993,-0.00000333,-0.00000397
 ,0.00000170,-0.00023698,0.00017946,-0.00013282,-0.00003502,-0.00002410
 ,-0.00001214,0.00000747,0.00000016,0.00000967,-0.00001523,0.00000224,-
 0.00001516,-0.00000791,-0.00000442,0.00000238,-0.00000383,0.00000634,0
 .00000752,-0.00001457,-0.00000362,-0.00000580,-0.00005554,0.00002294,-
 0.00002559,-0.00116224,0.00005951,-0.00052302,-0.01271152,-0.01299370,
 0.01192627,-0.09591717,-0.19332486,0.11117745,0.00371068,0.00622887,-0
 .00182772,0.00160278,0.00289684,0.00253434,0.00051171,-0.00011201,-0.0
 0059282,0.00401678,-0.00109807,0.00389157,0.10306022,0.20083495,-0.000
 92960,0.00054467,0.00058912,-0.00103018,-0.00201730,-0.00277393,0.0007
 8945,-0.00059422,0.00018606,-0.00013219,-0.00018218,-0.00007705,-0.000
 02391,-0.00000130,0.00001804,0.00001161,-0.00000823,-0.00000113,0.0000
 0101,0.00000016,-0.00000402,0.00000236,0.00000113,-0.00000122,0.000084
 42,-0.00006901,0.00008455,-0.00001464,0.00000669,-0.00001898,-0.000002
 37,0.00000678,-0.00001077,-0.00002788,0.00003025,0.00000387,0.00000827
 ,0.00001017,0.00000447,-0.00001829,-0.00001154,-0.00000920,-0.00000078
 ,-0.00001773,-0.00001762,0.00003425,-0.00001615,0.00000576,-0.00024017
 ,-0.00043223,-0.00032473,0.00766689,0.00731695,-0.00228986,0.07355385,
 0.11120384,-0.12017175,0.00106324,0.00329316,0.00180701,0.00148749,0.0
 0220298,0.00625540,-0.00075882,-0.00039118,-0.00062005,-0.00052803,0.0
 0430905,0.00466312,-0.08068791,-0.12300871,0.11664437,-0.00062955,-0.0
 0005151,0.00030142,0.00117294,0.00100731,-0.00095995,-0.00082677,0.000
 46349,0.00044034,0.00043818,-0.00029419,0.00006912,0.00004330,0.000021
 46,-0.00006259,-0.00003215,0.00001572,0.00000724,-0.00000106,-0.000001
 17,0.00000910,-0.00000657,-0.00000207,0.00000279,-0.00017844,0.0001210
 1,-0.00012492,0.00002006,-0.00002308,0.00002938,-0.00000617,0.00000817
 ,0.00000652,-0.00003196,0.00002228,-0.00000090,-0.00000908,-0.00000616
 ,-0.00000269,-0.00000754,-0.00000294,-0.00000461,-0.00002141,-0.000010
 32,-0.00000557,-0.00000112,0.00002615,-0.00003647,0.00000724,-0.000032
 37,-0.00005314,-0.00553946,0.00023354,0.00205676,-0.01017613,0.0254493
 2,-0.01282389,-0.12703707,0.11041460,-0.04935219,0.01164212,-0.0138543
 6,0.00677451,-0.00065558,-0.00198862,0.00283728,-0.00080044,-0.0007906
 5,0.00040697,0.00102426,-0.00073933,-0.00056914,0.13051456,0.00027602,
 0.00002204,-0.00011251,-0.00067116,0.00003040,0.00019106,0.00012143,-0
 .00010085,-0.00001406,-0.00022550,0.00013754,-0.00003457,-0.00002161,-
 0.00001082,0.00003283,0.00001665,-0.00000789,-0.00000390,0.00000047,0.
 00000037,-0.00000482,0.00000324,0.00000119,-0.00000134,0.00009506,-0.0
 0006217,0.00006184,-0.00000974,0.00001179,-0.00001279,0.00000268,-0.00
 000431,-0.00000257,0.00001449,-0.00000984,0.00000084,0.00000449,0.0000
 0260,0.00000145,0.00000272,0.00000088,0.00000232,0.00001041,0.00000410
 ,0.00000283,0.00000302,-0.00001202,0.00001504,0.00002519,0.00002397,0.
 00001601,0.00076997,0.00329079,0.00248152,-0.00106330,0.00182960,0.001
 26094,0.11048493,-0.22859495,0.09372227,0.01285001,-0.01224256,0.00704
 817,-0.00253272,0.00029850,0.00497720,-0.00062440,-0.00013256,-0.00045
 625,-0.00011639,-0.00054520,-0.00221610,-0.11939370,0.23746307,-0.0000
 8081,0.00000653,-0.00005266,0.00019931,-0.00010024,0.00032194,-0.00019
 628,0.00001026,-0.00005540,0.00002414,-0.00001660,0.00000076,0.0000035
 6,0.00000208,-0.00000536,-0.00000272,0.00000137,0.00000064,0.00000005,
 0.,0.00000076,-0.00000064,-0.00000030,0.00000029,-0.00001473,0.0000076
 4,-0.00001038,0.00000368,-0.00000160,0.00000435,-0.00000047,0.00000034
 ,0.00000059,-0.00000394,0.00000128,0.00000254,-0.00000079,-0.00000125,
 -0.00000051,0.00000043,0.00000009,-0.00000015,-0.00000177,-0.00000065,
 0.00000125,-0.00000081,0.00000263,-0.00000319,-0.00004342,0.00000029,-
 0.00002471,0.00214419,0.00243320,0.00574531,0.00328205,-0.00383890,0.0
 0535123,-0.04932573,0.09383747,-0.08586761,-0.00941557,0.01212239,-0.0
 0191193,0.00305113,0.00485281,0.00403163,0.00061651,-0.00053501,-0.000
 84686,-0.00089677,-0.00205467,-0.00287440,0.05197618,-0.10459282,0.079
 82249,-0.00034303,-0.00001701,0.00009465,0.00040654,-0.00006890,-0.000
 21895,-0.00018022,0.00001978,0.00007976,0.00025640,-0.00015620,0.00003
 752,0.00002481,0.00001307,-0.00003750,-0.00001907,0.00000918,0.0000044
 1,-0.00000055,-0.00000054,0.00000544,-0.00000364,-0.00000141,0.0000015
 1,-0.00010871,0.00007229,-0.00007128,0.00000980,-0.00001409,0.00001406
 ,-0.00000267,0.00000437,0.00000333,-0.00001729,0.00001071,-0.00000188,
 -0.00000511,-0.00000313,-0.00000154,-0.00000347,-0.00000090,-0.0000020
 6,-0.00001198,-0.00000482,-0.00000230,-0.00000360,0.00001334,-0.000016
 70,-0.00003365,0.00000029,-0.00001862,0.00042388,-0.00007203,-0.000238
 31,0.00072288,-0.00190798,0.00262189,-0.01044191,0.00397038,0.00053847
 ,-0.33358613,0.02741853,0.04391642,-0.01028209,-0.00134048,0.00369854,
 0.00079433,0.00314489,-0.00048719,-0.00063374,0.00018431,-0.00000413,0
 .00066444,-0.00061320,-0.00063323,0.35233900,-0.00007584,0.00000517,0.
 00003345,-0.00019854,-0.00032245,-0.00057503,0.00017466,0.00003480,0.0
 0000645,0.00008223,-0.00004220,0.00002040,0.00000317,0.00000524,-0.000
 00773,-0.00000391,0.00000158,0.00000104,-0.00000022,-0.00000031,0.0000
 0073,-0.00000001,-0.00000040,0.00000011,-0.00002142,0.00001872,-0.0000
 1126,-0.00000640,-0.00000270,-0.00000437,0.00000100,0.00000021,0.00000
 065,-0.00000926,0.00000761,-0.00000408,0.00000091,0.00000091,-0.000000
 38,-0.00000037,0.00000003,0.00000002,-0.00000331,-0.00000173,-0.000001
 58,-0.00000445,0.00000014,0.00000138,0.00000056,0.00003586,0.00002842,
 -0.00014455,-0.00106180,0.00001089,-0.00152270,-0.00086722,0.00546677,
 -0.02267879,0.00643317,0.00311719,0.02737222,-0.05727248,0.00539852,0.
 02534652,0.00255382,-0.00436273,0.00278071,-0.00180615,0.00508398,-0.0
 0107549,0.00008794,0.00011230,0.00008105,-0.00035205,-0.00233267,-0.03
 028856,0.05286112,-0.00017316,0.00004002,0.00009410,-0.00037061,-0.000
 51465,-0.00077135,0.00024189,-0.00019024,0.00001691,0.00005134,-0.0000
 5721,0.00001642,0.00000029,0.00000358,-0.00000481,-0.00000215,0.000000
 57,0.00000080,-0.00000005,-0.00000020,0.00000030,0.00000009,-0.0000002
 4,-0.00000003,-0.00000980,0.00000806,-0.00000110,-0.00000477,-0.000002
 15,-0.00000453,0.00000032,0.00000106,-0.00000087,-0.00001209,0.0000096
 6,-0.00000677,0.00000162,0.00000222,0.00000032,-0.00000345,-0.00000162
 ,-0.00000135,-0.00000330,-0.00000349,-0.00000320,0.00000205,-0.0000036
 7,0.00000323,0.00007598,0.00002901,0.00004208,-0.00021351,0.00049379,-
 0.00120932,0.00227161,0.00545806,0.00391446,0.01646241,-0.00241732,0.0
 0191497,0.04390377,0.00548755,-0.05156858,-0.01223908,0.00105574,0.005
 73446,-0.00009345,0.00488882,0.00477157,0.00079927,-0.00016065,-0.0000
 7932,-0.00102657,-0.00222341,-0.00263464,-0.04862308,-0.00961441,0.042
 38413,-0.00088099,0.00015982,0.00020792,0.00073606,-0.00148356,0.00048
 936,-0.00021158,0.00031862,0.00002730,0.00035820,-0.00031392,-0.000005
 00,0.00004442,0.00002325,-0.00006864,-0.00003474,0.00001641,0.00000800
 ,-0.00000050,-0.00000095,0.00001021,-0.00000661,-0.00000240,0.00000278
 ,-0.00020010,0.00012308,-0.00012951,0.00002050,-0.00002710,0.00003088,
 -0.00000767,0.00000917,0.00000467,-0.00002916,0.00001813,0.00002073,-0
 .00001371,-0.00000920,-0.00000247,-0.00000474,-0.00000147,-0.00000659,
 -0.00002234,-0.00001196,-0.00000191,-0.00000264,0.00003344,-0.00003846
 ,-0.00001816,-0.00007162,-0.00006324,-0.00524335,0.00222299,0.00183412
 ,-0.00081842,0.00072599,-0.00043870,-0.00057020,0.00344835,-0.00037261
 ,0.01163803,0.01229357,-0.00897936,-0.12790204,-0.09500060,0.07535981,
 -0.01015719,-0.02308724,0.01666382,0.00005978,-0.00021793,-0.00013506,
 0.00038836,0.00061049,-0.00042779,0.00065687,-0.00096178,-0.00042272,0
 .13123479,-0.00009727,-0.00000170,0.00008436,0.00046084,0.00022039,-0.
 00002962,-0.00013051,0.00001271,-0.00002260,0.00013701,-0.00007853,0.0
 0003193,0.00001225,0.00000625,-0.00001881,-0.00000956,0.00000463,0.000
 00220,-0.00000030,-0.00000017,0.00000256,-0.00000204,-0.00000057,0.000
 00087,-0.00005394,0.00003627,-0.00003757,0.00000734,-0.00000598,0.0000
 0844,-0.00000167,0.00000265,0.00000154,-0.00000554,0.00000684,-0.00000
 380,-0.00000208,-0.00000144,-0.00000167,-0.00000118,-0.00000228,-0.000
 00209,-0.00000503,-0.00000172,-0.00000271,-0.00000174,0.00000506,-0.00
 000987,-0.00002839,-0.00003085,-0.00004449,0.00169508,0.00308952,0.002
 25370,0.00069113,-0.00037644,-0.00053480,0.00400972,-0.00088086,0.0043
 1651,-0.01451005,-0.01215969,0.01243622,-0.09496716,-0.19234739,0.1117
 7931,0.00345479,0.00587603,-0.00202046,-0.00019597,-0.00029089,-0.0004
 8324,-0.00068297,-0.00073341,0.00063831,-0.00027396,-0.00026303,-0.002
 31695,0.10135731,0.19841837,0.00032639,0.00002007,-0.00009336,-0.00050
 683,0.00028393,0.00018750,0.00026568,-0.00012028,-0.00012068,-0.000146
 54,0.00010730,-0.00000325,-0.00001711,-0.00000755,0.00002495,0.0000125
 7,-0.00000584,-0.00000284,0.00000028,0.00000041,-0.00000394,0.00000263
 ,0.00000082,-0.00000104,0.00006999,-0.00003865,0.00004174,-0.00000952,
 0.00001063,-0.00001303,0.00000299,-0.00000323,-0.00000176,0.00001840,-
 0.00000952,0.00000031,0.00000293,0.00000161,0.,0.00000380,-0.00000087,
 0.00000010,0.00001000,0.00000526,-0.00000027,-0.00000355,-0.00001222,0
 .00000855,-0.00001682,-0.00003016,-0.00002925,0.00191515,0.00236893,0.
 00572891,-0.00045752,-0.00062287,-0.00048215,-0.00064339,0.00429871,0.
 00519301,0.00689587,0.00688390,-0.00190864,0.07542197,0.11170063,-0.12
 139282,0.00068168,0.00351252,0.00148710,-0.00008978,-0.00046783,-0.000
 87414,0.00033065,0.00035038,-0.00019657,-0.00083554,-0.00216506,-0.002
 72527,-0.08249289,-0.12395479,0.11808620,0.00049785,0.00014160,-0.0000
 0112,-0.00022499,-0.00137399,-0.00018839,0.00006910,-0.00016594,-0.000
 46505,-0.00022725,0.00010385,0.00002328,-0.00003155,-0.00000712,0.0000
 3876,0.00002018,-0.00001066,-0.00000448,0.00000113,0.00000011,-0.00000
 675,0.00000606,0.00000114,-0.00000234,0.00012072,-0.00006849,0.0000759
 3,-0.00002035,0.00001777,-0.00002597,0.00000552,-0.00000614,-0.0000046
 2,-0.00000537,0.00000951,-0.00001260,0.00001144,0.00000787,0.00000027,
 0.00000393,0.00000099,0.00000411,0.00000793,0.00000202,0.00000032,-0.0
 0000861,-0.00002740,0.00002846,0.00002203,0.00008486,0.00004444,0.0109
 9651,-0.01213363,0.00575871,-0.00094718,-0.00197377,0.00285931,-0.0007
 2934,-0.00060383,0.00030029,-0.00492212,0.00027975,0.00272007,-0.00958
 864,0.02544259,-0.01186186,-0.12642755,0.11165895,-0.04692693,0.000451
 82,-0.00067684,0.00040025,0.00004504,-0.00001953,-0.00025575,-0.000622
 07,0.00115258,-0.00061287,0.00098713,-0.00085611,-0.00074148,0.1305086
 5,-0.00041015,0.00008914,0.00017519,0.00168205,-0.00296995,-0.00266707
 ,0.00033089,0.00195543,-0.00025561,0.00010651,-0.00016306,0.00003073,0
 .00000163,0.00000950,-0.00001164,-0.00000582,0.00000222,0.00000150,0.0
 0000061,-0.00000076,0.00000077,0.00000138,-0.00000093,0.00000010,-0.00
 003229,0.00003032,-0.00002572,-0.00002248,-0.00000304,-0.00000544,-0.0
 0000093,-0.00000073,0.00000031,-0.00003658,0.00003164,0.00001751,0.000
 00105,0.00000145,-0.00000168,0.00000473,0.00000262,-0.00000148,-0.0000
 1215,-0.00000976,-0.00000120,-0.00001140,0.00001872,0.00000912,-0.0000
 2586,0.00009348,0.00001328,0.01103364,-0.01332572,0.00787628,-0.002507
 18,-0.00028283,0.00445228,-0.00072945,0.00006135,-0.00041016,0.0005828
 0,0.00320091,0.00232767,-0.00107436,0.00228773,0.00131669,0.11169192,-
 0.23370885,0.08846803,0.00067103,-0.00063673,0.00041098,0.00000936,-0.
 00030819,-0.00044197,-0.00009792,-0.00005379,0.00002807,-0.00017090,-0
 .00050377,-0.00210623,-0.12098012,0.24418361,-0.00057597,-0.00007079,0
 .00029892,-0.00135098,-0.00078300,-0.00239815,0.00032184,-0.00144949,0
 .00032074,0.00024785,-0.00026631,0.00008489,0.00002137,0.00000961,-0.0
 0003085,-0.00001670,0.00000836,0.00000392,-0.00000018,-0.00000074,0.00
 000393,-0.00000332,-0.00000137,0.00000159,-0.00008181,0.00007264,-0.00
 006659,0.00001533,-0.00001494,0.00001354,-0.00000531,0.00000412,0.0000
 0414,-0.00003777,0.00002485,-0.00002310,-0.00000206,0.00000054,-0.0000
 0088,-0.00001187,-0.00000748,-0.00000565,-0.00001725,-0.00001126,-0.00
 000606,0.00002146,0.00000091,-0.00001313,0.00001619,-0.00002978,-0.000
 09633,-0.00966690,0.01249688,-0.00077111,0.00312166,0.00453689,0.00357
 917,0.00041628,-0.00038503,-0.00083623,0.00230431,0.00257728,0.0057598
 3,0.00329125,-0.00421280,0.00579491,-0.04535476,0.08877943,-0.08066288
 ,-0.00038470,0.00068679,-0.00011361,-0.00022562,-0.00048955,-0.0007994
 1,0.00017631,-0.00020297,0.00011740,-0.00107463,-0.00207248,-0.0029093
 7,0.04885599,-0.09920031,0.07275038\\0.00000389,0.00000205,-0.00000152
 ,-0.00000051,-0.00000503,-0.00000236,-0.00000269,0.00000077,0.00000410
 ,0.00000100,-0.00000180,-0.00000323,0.00000223,-0.00000290,0.00000878,
 -0.00000021,0.00000379,0.00000122,-0.00000016,0.00000269,0.00000035,0.
 00000205,-0.00000380,-0.00000105,-0.00001079,0.00000512,-0.00000005,0.
 00001265,0.00000035,0.00000507,-0.00000376,-0.00000080,0.00000159,-0.0
 0000112,0.00000258,-0.00000464,0.00000093,-0.00000084,-0.00000099,0.00
 000034,0.00000087,-0.00000089,-0.00000107,0.00000302,0.00000032,-0.000
 00138,-0.00000125,0.00000132,0.00000690,0.00000328,0.00000413,0.000000
 74,0.00000236,-0.00000075,0.00000520,0.00000212,0.00000359,-0.00000051
 ,-0.00000068,-0.00000113,-0.00000002,-0.00000043,-0.00000126,0.0000004
 1,-0.00000055,-0.00000007,-0.00000112,-0.00000200,-0.00000315,-0.00001
 281,-0.00000727,-0.00000669,-0.00000019,-0.00000150,-0.00000234,-0.000
 00012,-0.00000072,-0.00000145,0.,0.00000018,0.00000031,0.00000011,0.00
 000039,0.00000078\\\@


 NATURE GIVES TO EVERY TIME AND SEASON SOME BEAUTY OF ITS OWN.

                                                    --DICKENS
 Job cpu time:       0 days 11 hours 21 minutes 25.3 seconds.
 Elapsed time:       0 days  0 hours 42 minutes 39.5 seconds.
 File lengths (MBytes):  RWF=    810 Int=      0 D2E=      0 Chk=     36 Scr=      1
 Normal termination of Gaussian 16 at Fri Mar 26 12:27:08 2021.
