 Entering Gaussian System, Link 0=g16
 Initial command:
 /apps/gaussian/16/A.03/g16/l1.exe "/beegfs/scratch/user/q/tla25/Gau-62845.inp" -scrdir="/beegfs/scratch/user/q/tla25/"
 Entering Link 1 = /apps/gaussian/16/A.03/g16/l1.exe PID=     62846.
  
 Copyright (c) 1988,1990,1992,1993,1995,1998,2003,2009,2016,
            Gaussian, Inc.  All Rights Reserved.
  
 This is part of the Gaussian(R) 16 program.  It is based on
 the Gaussian(R) 09 system (copyright 2009, Gaussian, Inc.),
 the Gaussian(R) 03 system (copyright 2003, Gaussian, Inc.),
 the Gaussian(R) 98 system (copyright 1998, Gaussian, Inc.),
 the Gaussian(R) 94 system (copyright 1995, Gaussian, Inc.),
 the Gaussian 92(TM) system (copyright 1992, Gaussian, Inc.),
 the Gaussian 90(TM) system (copyright 1990, Gaussian, Inc.),
 the Gaussian 88(TM) system (copyright 1988, Gaussian, Inc.),
 the Gaussian 86(TM) system (copyright 1986, Carnegie Mellon
 University), and the Gaussian 82(TM) system (copyright 1983,
 Carnegie Mellon University). Gaussian is a federally registered
 trademark of Gaussian, Inc.
  
 This software contains proprietary and confidential information,
 including trade secrets, belonging to Gaussian, Inc.
  
 This software is provided under written license and may be
 used, copied, transmitted, or stored only in accord with that
 written license.
  
 The following legend is applicable only to US Government
 contracts under FAR:
  
                    RESTRICTED RIGHTS LEGEND
  
 Use, reproduction and disclosure by the US Government is
 subject to restrictions as set forth in subparagraphs (a)
 and (c) of the Commercial Computer Software - Restricted
 Rights clause in FAR 52.227-19.
  
 Gaussian, Inc.
 340 Quinnipiac St., Bldg. 40, Wallingford CT 06492
  
  
 ---------------------------------------------------------------
 Warning -- This program may not be used in any manner that
 competes with the business of Gaussian, Inc. or will provide
 assistance to any competitor of Gaussian, Inc.  The licensee
 of this program is prohibited from giving any competitor of
 Gaussian, Inc. access to this program.  By using this program,
 the user acknowledges that Gaussian, Inc. is engaged in the
 business of creating and licensing software in the field of
 computational chemistry and represents and warrants to the
 licensee that it is not a competitor of Gaussian, Inc. and that
 it will not use this program in any manner prohibited above.
 ---------------------------------------------------------------
  

 Cite this work as:
 Gaussian 16, Revision A.03,
 M. J. Frisch, G. W. Trucks, H. B. Schlegel, G. E. Scuseria, 
 M. A. Robb, J. R. Cheeseman, G. Scalmani, V. Barone, 
 G. A. Petersson, H. Nakatsuji, X. Li, M. Caricato, A. V. Marenich, 
 J. Bloino, B. G. Janesko, R. Gomperts, B. Mennucci, H. P. Hratchian, 
 J. V. Ortiz, A. F. Izmaylov, J. L. Sonnenberg, D. Williams-Young, 
 F. Ding, F. Lipparini, F. Egidi, J. Goings, B. Peng, A. Petrone, 
 T. Henderson, D. Ranasinghe, V. G. Zakrzewski, J. Gao, N. Rega, 
 G. Zheng, W. Liang, M. Hada, M. Ehara, K. Toyota, R. Fukuda, 
 J. Hasegawa, M. Ishida, T. Nakajima, Y. Honda, O. Kitao, H. Nakai, 
 T. Vreven, K. Throssell, J. A. Montgomery, Jr., J. E. Peralta, 
 F. Ogliaro, M. J. Bearpark, J. J. Heyd, E. N. Brothers, K. N. Kudin, 
 V. N. Staroverov, T. A. Keith, R. Kobayashi, J. Normand, 
 K. Raghavachari, A. P. Rendell, J. C. Burant, S. S. Iyengar, 
 J. Tomasi, M. Cossi, J. M. Millam, M. Klene, C. Adamo, R. Cammi, 
 J. W. Ochterski, R. L. Martin, K. Morokuma, O. Farkas, 
 J. B. Foresman, and D. J. Fox, Gaussian, Inc., Wallingford CT, 2016.
 
 ******************************************
 Gaussian 16:  ES64L-G16RevA.03 25-Dec-2016
                14-Feb-2021 
 ******************************************
 %nprocshared=16
 Will use up to   16 processors via shared memory.
 %mem=48GB
 ----------------------------------------------------------------------
 # wB97XD def2tzvp, opt=(ts, noeigen, calcfc, maxcycles=70, maxstep=5),
  freq=noraman, scrf=(iefpcm, solvent=water)
 ----------------------------------------------------------------------
 1/5=1,6=70,8=5,10=4,11=1,18=20,26=3,38=1/1,3;
 2/9=110,12=2,17=6,18=5,40=1/2;
 3/5=44,7=101,11=2,25=1,30=1,70=2201,71=2,72=1,74=-58,140=1/1,2,3;
 4//1;
 5/5=2,38=5,53=1/2;
 8/6=4,10=90,11=11/1;
 11/6=1,8=1,9=11,15=111,16=1/1,2,10;
 10/6=1,13=1/2;
 6/7=2,8=2,9=2,10=2,28=1/1;
 7/10=1,18=20,25=1/1,2,3,16;
 1/5=1,6=70,8=5,10=4,11=1,18=20,26=3/3(2);
 2/9=110/2;
 99//99;
 2/9=110/2;
 3/5=44,7=101,11=2,25=1,30=1,70=2205,71=1,72=1,74=-58/1,2,3;
 4/5=5,16=3,69=1/1;
 5/5=2,38=5,53=1/2;
 7//1,2,3,16;
 1/5=1,6=70,8=5,11=1,18=20,26=3/3(-5);
 2/9=110/2;
 6/7=2,8=2,9=2,10=2,19=2,28=1/1;
 99/9=1/99;
 ------------------------
 2_iteration/TS-448-2.out
 ------------------------
 Symbolic Z-matrix:
 Charge =  0 Multiplicity = 1
 C                     0.87227  -0.21534  -0.50975 
 C                     0.02559  -1.36328  -0.40101 
 O                     0.46407  -2.52907  -0.40775 
 C                     2.20981  -0.47272  -0.82328 
 C                     4.341    -1.87817   0.76792 
 H                     4.42437  -2.47828  -0.13886 
 H                     5.07868  -1.07878   0.72319 
 H                     4.56589  -2.51304   1.62785 
 N                     3.00409  -1.3044    0.83374 
 H                     2.28793  -2.01499   0.93683 
 H                     2.9051   -0.62666   1.57832 
 C                     3.2169    0.59721  -1.10434 
 H                     3.03068   1.01124  -2.0978 
 H                     3.15613   1.41457  -0.3864 
 H                     4.22772   0.19265  -1.10486 
 H                     2.38425  -1.40847  -1.34215 
 C                     0.42097   1.12893  -0.06559 
 C                    -0.07163   1.32235   1.22675 
 C                    -0.50973   2.56694   1.6538 
 C                    -0.45253   3.65731   0.79722 
 C                     0.04349   3.48743  -0.48803 
 C                     0.47017   2.23789  -0.91181 
 H                    -0.11593   0.47762   1.90451 
 H                    -0.89202   2.6866    2.66023 
 H                    -0.79215   4.63085   1.12782 
 H                     0.0889    4.32978  -1.16754 
 H                     0.83179   2.11297  -1.92528 
 C                    -1.46235  -1.18554  -0.26632 
 C                    -2.16719  -0.27956  -1.05356 
 C                    -3.54486  -0.17151  -0.94008 
 C                    -4.23146  -0.95572  -0.02319 
 C                    -3.53569  -1.86116   0.76655 
 C                    -2.16093  -1.98275   0.63521 
 H                    -1.63431   0.34053  -1.76306 
 H                    -4.08368   0.52816  -1.56674 
 H                    -5.30602  -0.86369   0.07345 
 H                    -4.06627  -2.47539   1.48341 
 H                    -1.61527  -2.69625   1.23999 
 
 Add virtual bond connecting atoms N9         and C4         Dist= 3.81D+00.

 GradGradGradGradGradGradGradGradGradGradGradGradGradGradGradGradGradGrad
 Berny optimization.
 Initialization pass.
                           ----------------------------
                           !    Initial Parameters    !
                           ! (Angstroms and Degrees)  !
 --------------------------                            --------------------------
 ! Name  Definition              Value          Derivative Info.                !
 --------------------------------------------------------------------------------
 ! R1    R(1,2)                  1.4305         calculate D2E/DX2 analytically  !
 ! R2    R(1,4)                  1.3977         calculate D2E/DX2 analytically  !
 ! R3    R(1,17)                 1.4859         calculate D2E/DX2 analytically  !
 ! R4    R(2,3)                  1.2455         calculate D2E/DX2 analytically  !
 ! R5    R(2,28)                 1.5046         calculate D2E/DX2 analytically  !
 ! R6    R(4,9)                  2.017          calculate D2E/DX2 analytically  !
 ! R7    R(4,12)                 1.496          calculate D2E/DX2 analytically  !
 ! R8    R(4,16)                 1.0841         calculate D2E/DX2 analytically  !
 ! R9    R(5,6)                  1.0906         calculate D2E/DX2 analytically  !
 ! R10   R(5,7)                  1.0887         calculate D2E/DX2 analytically  !
 ! R11   R(5,8)                  1.0923         calculate D2E/DX2 analytically  !
 ! R12   R(5,9)                  1.4563         calculate D2E/DX2 analytically  !
 ! R13   R(9,10)                 1.0141         calculate D2E/DX2 analytically  !
 ! R14   R(9,11)                 1.0117         calculate D2E/DX2 analytically  !
 ! R15   R(12,13)                1.0923         calculate D2E/DX2 analytically  !
 ! R16   R(12,14)                1.0896         calculate D2E/DX2 analytically  !
 ! R17   R(12,15)                1.0888         calculate D2E/DX2 analytically  !
 ! R18   R(17,18)                1.3965         calculate D2E/DX2 analytically  !
 ! R19   R(17,22)                1.3958         calculate D2E/DX2 analytically  !
 ! R20   R(18,19)                1.3868         calculate D2E/DX2 analytically  !
 ! R21   R(18,23)                1.0839         calculate D2E/DX2 analytically  !
 ! R22   R(19,20)                1.3878         calculate D2E/DX2 analytically  !
 ! R23   R(19,24)                1.0832         calculate D2E/DX2 analytically  !
 ! R24   R(20,21)                1.3881         calculate D2E/DX2 analytically  !
 ! R25   R(20,25)                1.0828         calculate D2E/DX2 analytically  !
 ! R26   R(21,22)                1.3867         calculate D2E/DX2 analytically  !
 ! R27   R(21,26)                1.0832         calculate D2E/DX2 analytically  !
 ! R28   R(22,27)                1.0833         calculate D2E/DX2 analytically  !
 ! R29   R(28,29)                1.3919         calculate D2E/DX2 analytically  !
 ! R30   R(28,33)                1.3915         calculate D2E/DX2 analytically  !
 ! R31   R(29,30)                1.3866         calculate D2E/DX2 analytically  !
 ! R32   R(29,34)                1.0825         calculate D2E/DX2 analytically  !
 ! R33   R(30,31)                1.3882         calculate D2E/DX2 analytically  !
 ! R34   R(30,35)                1.0829         calculate D2E/DX2 analytically  !
 ! R35   R(31,32)                1.3884         calculate D2E/DX2 analytically  !
 ! R36   R(31,36)                1.0828         calculate D2E/DX2 analytically  !
 ! R37   R(32,33)                1.3864         calculate D2E/DX2 analytically  !
 ! R38   R(32,37)                1.0829         calculate D2E/DX2 analytically  !
 ! R39   R(33,38)                1.0829         calculate D2E/DX2 analytically  !
 ! A1    A(2,1,4)              115.8278         calculate D2E/DX2 analytically  !
 ! A2    A(2,1,17)             121.5652         calculate D2E/DX2 analytically  !
 ! A3    A(4,1,17)             121.6199         calculate D2E/DX2 analytically  !
 ! A4    A(1,2,3)              122.8403         calculate D2E/DX2 analytically  !
 ! A5    A(1,2,28)             119.8234         calculate D2E/DX2 analytically  !
 ! A6    A(3,2,28)             117.3358         calculate D2E/DX2 analytically  !
 ! A7    A(1,4,9)              105.5744         calculate D2E/DX2 analytically  !
 ! A8    A(1,4,12)             123.6875         calculate D2E/DX2 analytically  !
 ! A9    A(1,4,16)             114.8529         calculate D2E/DX2 analytically  !
 ! A10   A(9,4,12)             100.6115         calculate D2E/DX2 analytically  !
 ! A11   A(9,4,16)              88.5057         calculate D2E/DX2 analytically  !
 ! A12   A(12,4,16)            114.7769         calculate D2E/DX2 analytically  !
 ! A13   A(6,5,7)              108.5477         calculate D2E/DX2 analytically  !
 ! A14   A(6,5,8)              108.6038         calculate D2E/DX2 analytically  !
 ! A15   A(6,5,9)              108.9388         calculate D2E/DX2 analytically  !
 ! A16   A(7,5,8)              108.64           calculate D2E/DX2 analytically  !
 ! A17   A(7,5,9)              109.5482         calculate D2E/DX2 analytically  !
 ! A18   A(8,5,9)              112.4835         calculate D2E/DX2 analytically  !
 ! A19   A(4,9,5)              119.1323         calculate D2E/DX2 analytically  !
 ! A20   A(4,9,10)              95.4134         calculate D2E/DX2 analytically  !
 ! A21   A(4,9,11)             106.8499         calculate D2E/DX2 analytically  !
 ! A22   A(5,9,10)             112.1364         calculate D2E/DX2 analytically  !
 ! A23   A(5,9,11)             112.7691         calculate D2E/DX2 analytically  !
 ! A24   A(10,9,11)            108.995          calculate D2E/DX2 analytically  !
 ! A25   A(4,12,13)            109.0993         calculate D2E/DX2 analytically  !
 ! A26   A(4,12,14)            112.0349         calculate D2E/DX2 analytically  !
 ! A27   A(4,12,15)            111.0594         calculate D2E/DX2 analytically  !
 ! A28   A(13,12,14)           107.7848         calculate D2E/DX2 analytically  !
 ! A29   A(13,12,15)           107.3792         calculate D2E/DX2 analytically  !
 ! A30   A(14,12,15)           109.3193         calculate D2E/DX2 analytically  !
 ! A31   A(1,17,18)            120.6002         calculate D2E/DX2 analytically  !
 ! A32   A(1,17,22)            121.791          calculate D2E/DX2 analytically  !
 ! A33   A(18,17,22)           117.6087         calculate D2E/DX2 analytically  !
 ! A34   A(17,18,19)           121.3787         calculate D2E/DX2 analytically  !
 ! A35   A(17,18,23)           119.0206         calculate D2E/DX2 analytically  !
 ! A36   A(19,18,23)           119.5997         calculate D2E/DX2 analytically  !
 ! A37   A(18,19,20)           120.1341         calculate D2E/DX2 analytically  !
 ! A38   A(18,19,24)           119.7836         calculate D2E/DX2 analytically  !
 ! A39   A(20,19,24)           120.0815         calculate D2E/DX2 analytically  !
 ! A40   A(19,20,21)           119.3459         calculate D2E/DX2 analytically  !
 ! A41   A(19,20,25)           120.3343         calculate D2E/DX2 analytically  !
 ! A42   A(21,20,25)           120.3198         calculate D2E/DX2 analytically  !
 ! A43   A(20,21,22)           120.2112         calculate D2E/DX2 analytically  !
 ! A44   A(20,21,26)           120.0429         calculate D2E/DX2 analytically  !
 ! A45   A(22,21,26)           119.7429         calculate D2E/DX2 analytically  !
 ! A46   A(17,22,21)           121.3174         calculate D2E/DX2 analytically  !
 ! A47   A(17,22,27)           119.1656         calculate D2E/DX2 analytically  !
 ! A48   A(21,22,27)           119.5068         calculate D2E/DX2 analytically  !
 ! A49   A(2,28,29)            121.807          calculate D2E/DX2 analytically  !
 ! A50   A(2,28,33)            119.1306         calculate D2E/DX2 analytically  !
 ! A51   A(29,28,33)           119.0202         calculate D2E/DX2 analytically  !
 ! A52   A(28,29,30)           120.5028         calculate D2E/DX2 analytically  !
 ! A53   A(28,29,34)           119.6215         calculate D2E/DX2 analytically  !
 ! A54   A(30,29,34)           119.8747         calculate D2E/DX2 analytically  !
 ! A55   A(29,30,31)           120.0969         calculate D2E/DX2 analytically  !
 ! A56   A(29,30,35)           119.8277         calculate D2E/DX2 analytically  !
 ! A57   A(31,30,35)           120.0751         calculate D2E/DX2 analytically  !
 ! A58   A(30,31,32)           119.7521         calculate D2E/DX2 analytically  !
 ! A59   A(30,31,36)           120.1167         calculate D2E/DX2 analytically  !
 ! A60   A(32,31,36)           120.1309         calculate D2E/DX2 analytically  !
 ! A61   A(31,32,33)           120.0166         calculate D2E/DX2 analytically  !
 ! A62   A(31,32,37)           120.0606         calculate D2E/DX2 analytically  !
 ! A63   A(33,32,37)           119.9225         calculate D2E/DX2 analytically  !
 ! A64   A(28,33,32)           120.5945         calculate D2E/DX2 analytically  !
 ! A65   A(28,33,38)           119.1014         calculate D2E/DX2 analytically  !
 ! A66   A(32,33,38)           120.3026         calculate D2E/DX2 analytically  !
 ! D1    D(4,1,2,3)              9.1095         calculate D2E/DX2 analytically  !
 ! D2    D(4,1,2,28)          -171.1271         calculate D2E/DX2 analytically  !
 ! D3    D(17,1,2,3)          -159.6961         calculate D2E/DX2 analytically  !
 ! D4    D(17,1,2,28)           20.0673         calculate D2E/DX2 analytically  !
 ! D5    D(2,1,4,9)            -71.3532         calculate D2E/DX2 analytically  !
 ! D6    D(2,1,4,12)           174.0931         calculate D2E/DX2 analytically  !
 ! D7    D(2,1,4,16)            24.3438         calculate D2E/DX2 analytically  !
 ! D8    D(17,1,4,9)            97.4458         calculate D2E/DX2 analytically  !
 ! D9    D(17,1,4,12)          -17.1079         calculate D2E/DX2 analytically  !
 ! D10   D(17,1,4,16)         -166.8573         calculate D2E/DX2 analytically  !
 ! D11   D(2,1,17,18)           53.6742         calculate D2E/DX2 analytically  !
 ! D12   D(2,1,17,22)         -126.2962         calculate D2E/DX2 analytically  !
 ! D13   D(4,1,17,18)         -114.484          calculate D2E/DX2 analytically  !
 ! D14   D(4,1,17,22)           65.5456         calculate D2E/DX2 analytically  !
 ! D15   D(1,2,28,29)           44.2942         calculate D2E/DX2 analytically  !
 ! D16   D(1,2,28,33)         -138.094          calculate D2E/DX2 analytically  !
 ! D17   D(3,2,28,29)         -135.9295         calculate D2E/DX2 analytically  !
 ! D18   D(3,2,28,33)           41.6823         calculate D2E/DX2 analytically  !
 ! D19   D(1,4,9,5)            170.746          calculate D2E/DX2 analytically  !
 ! D20   D(1,4,9,10)            51.6594         calculate D2E/DX2 analytically  !
 ! D21   D(1,4,9,11)           -60.0754         calculate D2E/DX2 analytically  !
 ! D22   D(12,4,9,5)           -59.608          calculate D2E/DX2 analytically  !
 ! D23   D(12,4,9,10)         -178.6946         calculate D2E/DX2 analytically  !
 ! D24   D(12,4,9,11)           69.5706         calculate D2E/DX2 analytically  !
 ! D25   D(16,4,9,5)            55.3299         calculate D2E/DX2 analytically  !
 ! D26   D(16,4,9,10)          -63.7567         calculate D2E/DX2 analytically  !
 ! D27   D(16,4,9,11)         -175.4914         calculate D2E/DX2 analytically  !
 ! D28   D(1,4,12,13)          -74.4778         calculate D2E/DX2 analytically  !
 ! D29   D(1,4,12,14)           44.7874         calculate D2E/DX2 analytically  !
 ! D30   D(1,4,12,15)          167.3548         calculate D2E/DX2 analytically  !
 ! D31   D(9,4,12,13)          168.5744         calculate D2E/DX2 analytically  !
 ! D32   D(9,4,12,14)          -72.1604         calculate D2E/DX2 analytically  !
 ! D33   D(9,4,12,15)           50.407          calculate D2E/DX2 analytically  !
 ! D34   D(16,4,12,13)          75.292          calculate D2E/DX2 analytically  !
 ! D35   D(16,4,12,14)        -165.4427         calculate D2E/DX2 analytically  !
 ! D36   D(16,4,12,15)         -42.8754         calculate D2E/DX2 analytically  !
 ! D37   D(6,5,9,4)            -45.0134         calculate D2E/DX2 analytically  !
 ! D38   D(6,5,9,10)            65.0659         calculate D2E/DX2 analytically  !
 ! D39   D(6,5,9,11)          -171.4417         calculate D2E/DX2 analytically  !
 ! D40   D(7,5,9,4)             73.5874         calculate D2E/DX2 analytically  !
 ! D41   D(7,5,9,10)          -176.3334         calculate D2E/DX2 analytically  !
 ! D42   D(7,5,9,11)           -52.8409         calculate D2E/DX2 analytically  !
 ! D43   D(8,5,9,4)           -165.4804         calculate D2E/DX2 analytically  !
 ! D44   D(8,5,9,10)           -55.4011         calculate D2E/DX2 analytically  !
 ! D45   D(8,5,9,11)            68.0914         calculate D2E/DX2 analytically  !
 ! D46   D(1,17,18,19)        -179.3398         calculate D2E/DX2 analytically  !
 ! D47   D(1,17,18,23)           0.2922         calculate D2E/DX2 analytically  !
 ! D48   D(22,17,18,19)          0.6318         calculate D2E/DX2 analytically  !
 ! D49   D(22,17,18,23)       -179.7362         calculate D2E/DX2 analytically  !
 ! D50   D(1,17,22,21)         179.8485         calculate D2E/DX2 analytically  !
 ! D51   D(1,17,22,27)           1.022          calculate D2E/DX2 analytically  !
 ! D52   D(18,17,22,21)         -0.1227         calculate D2E/DX2 analytically  !
 ! D53   D(18,17,22,27)       -178.9493         calculate D2E/DX2 analytically  !
 ! D54   D(17,18,19,20)         -0.6545         calculate D2E/DX2 analytically  !
 ! D55   D(17,18,19,24)        179.6686         calculate D2E/DX2 analytically  !
 ! D56   D(23,18,19,20)        179.7155         calculate D2E/DX2 analytically  !
 ! D57   D(23,18,19,24)          0.0387         calculate D2E/DX2 analytically  !
 ! D58   D(18,19,20,21)          0.1502         calculate D2E/DX2 analytically  !
 ! D59   D(18,19,20,25)       -179.8965         calculate D2E/DX2 analytically  !
 ! D60   D(24,19,20,21)        179.8261         calculate D2E/DX2 analytically  !
 ! D61   D(24,19,20,25)         -0.2206         calculate D2E/DX2 analytically  !
 ! D62   D(19,20,21,22)          0.3509         calculate D2E/DX2 analytically  !
 ! D63   D(19,20,21,26)        179.7127         calculate D2E/DX2 analytically  !
 ! D64   D(25,20,21,22)       -179.6024         calculate D2E/DX2 analytically  !
 ! D65   D(25,20,21,26)         -0.2406         calculate D2E/DX2 analytically  !
 ! D66   D(20,21,22,17)         -0.3651         calculate D2E/DX2 analytically  !
 ! D67   D(20,21,22,27)        178.4575         calculate D2E/DX2 analytically  !
 ! D68   D(26,21,22,17)       -179.7288         calculate D2E/DX2 analytically  !
 ! D69   D(26,21,22,27)         -0.9061         calculate D2E/DX2 analytically  !
 ! D70   D(2,28,29,30)         177.7007         calculate D2E/DX2 analytically  !
 ! D71   D(2,28,29,34)          -1.9592         calculate D2E/DX2 analytically  !
 ! D72   D(33,28,29,30)          0.0864         calculate D2E/DX2 analytically  !
 ! D73   D(33,28,29,34)       -179.5735         calculate D2E/DX2 analytically  !
 ! D74   D(2,28,33,32)        -178.8411         calculate D2E/DX2 analytically  !
 ! D75   D(2,28,33,38)           1.6075         calculate D2E/DX2 analytically  !
 ! D76   D(29,28,33,32)         -1.1621         calculate D2E/DX2 analytically  !
 ! D77   D(29,28,33,38)        179.2865         calculate D2E/DX2 analytically  !
 ! D78   D(28,29,30,31)          0.9279         calculate D2E/DX2 analytically  !
 ! D79   D(28,29,30,35)       -179.2345         calculate D2E/DX2 analytically  !
 ! D80   D(34,29,30,31)       -179.4131         calculate D2E/DX2 analytically  !
 ! D81   D(34,29,30,35)          0.4245         calculate D2E/DX2 analytically  !
 ! D82   D(29,30,31,32)         -0.8712         calculate D2E/DX2 analytically  !
 ! D83   D(29,30,31,36)        179.3178         calculate D2E/DX2 analytically  !
 ! D84   D(35,30,31,32)        179.2916         calculate D2E/DX2 analytically  !
 ! D85   D(35,30,31,36)         -0.5194         calculate D2E/DX2 analytically  !
 ! D86   D(30,31,32,33)         -0.1974         calculate D2E/DX2 analytically  !
 ! D87   D(30,31,32,37)        179.9996         calculate D2E/DX2 analytically  !
 ! D88   D(36,31,32,33)        179.6136         calculate D2E/DX2 analytically  !
 ! D89   D(36,31,32,37)         -0.1894         calculate D2E/DX2 analytically  !
 ! D90   D(31,32,33,28)          1.2233         calculate D2E/DX2 analytically  !
 ! D91   D(31,32,33,38)       -179.2307         calculate D2E/DX2 analytically  !
 ! D92   D(37,32,33,28)       -178.9735         calculate D2E/DX2 analytically  !
 ! D93   D(37,32,33,38)          0.5725         calculate D2E/DX2 analytically  !
 --------------------------------------------------------------------------------
 Trust Radius=5.00D-02 FncErr=1.00D-07 GrdErr=1.00D-06 EigMax=2.50D+02 EigMin=1.00D-04
 Number of steps in this run=     70 maximum allowed number of steps=    228.
 Search for a saddle point of order  1.
 GradGradGradGradGradGradGradGradGradGradGradGradGradGradGradGradGradGrad

                          Input orientation:                          
 ---------------------------------------------------------------------
 Center     Atomic      Atomic             Coordinates (Angstroms)
 Number     Number       Type             X           Y           Z
 ---------------------------------------------------------------------
      1          6           0        0.872270   -0.215340   -0.509750
      2          6           0        0.025590   -1.363280   -0.401010
      3          8           0        0.464070   -2.529070   -0.407750
      4          6           0        2.209810   -0.472720   -0.823280
      5          6           0        4.341000   -1.878170    0.767920
      6          1           0        4.424370   -2.478280   -0.138860
      7          1           0        5.078680   -1.078780    0.723190
      8          1           0        4.565890   -2.513040    1.627850
      9          7           0        3.004090   -1.304400    0.833740
     10          1           0        2.287930   -2.014990    0.936830
     11          1           0        2.905100   -0.626660    1.578320
     12          6           0        3.216900    0.597210   -1.104340
     13          1           0        3.030680    1.011240   -2.097800
     14          1           0        3.156130    1.414570   -0.386400
     15          1           0        4.227720    0.192650   -1.104860
     16          1           0        2.384250   -1.408470   -1.342150
     17          6           0        0.420970    1.128930   -0.065590
     18          6           0       -0.071630    1.322350    1.226750
     19          6           0       -0.509730    2.566940    1.653800
     20          6           0       -0.452530    3.657310    0.797220
     21          6           0        0.043490    3.487430   -0.488030
     22          6           0        0.470170    2.237890   -0.911810
     23          1           0       -0.115930    0.477620    1.904510
     24          1           0       -0.892020    2.686600    2.660230
     25          1           0       -0.792150    4.630850    1.127820
     26          1           0        0.088900    4.329780   -1.167540
     27          1           0        0.831790    2.112970   -1.925280
     28          6           0       -1.462350   -1.185540   -0.266320
     29          6           0       -2.167190   -0.279560   -1.053560
     30          6           0       -3.544860   -0.171510   -0.940080
     31          6           0       -4.231460   -0.955720   -0.023190
     32          6           0       -3.535690   -1.861160    0.766550
     33          6           0       -2.160930   -1.982750    0.635210
     34          1           0       -1.634310    0.340530   -1.763060
     35          1           0       -4.083680    0.528160   -1.566740
     36          1           0       -5.306020   -0.863690    0.073450
     37          1           0       -4.066270   -2.475390    1.483410
     38          1           0       -1.615270   -2.696250    1.239990
 ---------------------------------------------------------------------
                    Distance matrix (angstroms):
                    1          2          3          4          5
     1  C    0.000000
     2  C    1.430545   0.000000
     3  O    2.351676   1.245543   0.000000
     4  C    1.397698   2.396294   2.729258   0.000000
     5  C    4.053336   4.500475   4.103225   3.008185   0.000000
     6  H    4.227987   4.545461   3.969743   3.065123   1.090565
     7  H    4.467612   5.184446   4.967594   3.315010   1.088668
     8  H    4.846812   5.104169   4.579176   3.965105   1.092298
     9  N    2.745118   3.224831   3.081041   2.017000   1.456322
    10  H    2.708399   2.707900   2.323497   2.341514   2.064545
    11  H    2.943063   3.570985   3.677263   2.504957   2.069984
    12  C    2.551679   3.810860   4.223380   1.495986   3.300979
    13  H    2.947055   4.189034   4.688022   2.121407   4.275275
    14  H    2.808530   4.185325   4.774928   2.155980   3.684903
    15  H    3.432150   4.535881   4.696678   2.143354   2.794357
    16  H    2.098221   2.539894   2.411626   1.084105   2.915799
    17  C    1.485938   2.545573   3.674220   2.517802   5.010392
    18  C    2.504171   3.141920   4.218057   3.553853   5.470389
    19  C    3.785757   4.467151   5.582794   4.771934   6.638778
    20  C    4.296590   5.183693   6.368941   5.174091   7.322590
    21  C    3.794450   4.851524   6.031717   4.526381   6.988252
    22  C    2.518268   3.664286   4.793540   3.222048   5.894639
    23  H    2.699145   2.953703   3.837073   3.708511   5.167766
    24  H    4.645724   5.158946   6.201185   5.633604   7.197393
    25  H    5.379357   6.239841   7.429705   6.234179   8.297355
    26  H    4.658806   5.744781   6.910995   5.261253   7.769492
    27  H    2.725141   3.880422   4.897617   3.130357   5.957943
    28  C    2.539881   1.504559   2.352907   3.781941   5.935340
    29  C    3.088393   2.531512   3.521490   4.387308   6.944774
    30  C    4.438259   3.802503   4.681131   5.763731   8.247226
    31  C    5.180054   4.293172   4.967023   6.508717   8.658166
    32  C    4.875221   3.780714   4.221749   6.120955   7.876708
    33  C    3.692557   2.497672   2.876953   4.848789   6.504125
    34  H    2.857048   2.741061   3.804559   4.040027   6.858048
    35  H    5.121666   4.671464   5.601066   6.415802   9.067320
    36  H    6.239531   5.375943   6.024864   7.579227   9.725043
    37  H    5.785299   4.640167   4.909516   6.980020   8.458770
    38  H    3.924839   2.676212   2.658317   4.881845   6.030693
                    6          7          8          9         10
     6  H    0.000000
     7  H    1.769139   0.000000
     8  H    1.772710   1.771571   0.000000
     9  N    2.083540   2.089749   2.128530   0.000000
    10  H    2.436416   2.951342   2.432008   1.014126   0.000000
    11  H    2.947098   2.379099   2.513783   1.011697   1.649202
    12  C    3.442205   3.100812   4.354112   2.723520   3.442811
    13  H    4.237519   4.064538   5.353306   3.735883   4.349566
    14  H    4.101706   3.338290   4.633654   2.984067   3.777114
    15  H    2.847050   2.383786   3.860417   2.737992   3.578402
    16  H    2.598940   3.410906   3.847145   2.264846   2.360274
    17  C    5.389299   5.214443   5.771659   3.660929   3.791387
    18  C    6.043484   5.704795   6.031392   4.063782   4.097489
    19  C    7.281018   6.737035   7.181141   5.292136   5.416182
    20  C    7.893406   7.282191   7.996731   6.047158   6.301159
    21  C    7.409705   6.904380   7.806068   5.785660   6.111003
    22  C    6.202855   5.908628   6.767284   4.692069   4.980834
    23  H    5.790253   5.549943   5.562376   3.749222   3.595560
    24  H    7.923061   7.319800   7.608603   5.868886   5.931875
    25  H    8.908215   8.199405   8.943925   7.051604   7.327384
    26  H    8.136594   7.597716   8.641865   6.651875   7.037060
    27  H    6.097336   5.936138   6.925908   4.899949   5.229921
    28  C    6.028341   6.616313   6.456765   4.601450   4.024942
    29  C    7.008545   7.503214   7.583717   5.599494   5.178944
    30  C    8.334973   8.829216   8.823905   6.878853   6.398644
    31  C    8.789480   9.340821   9.085403   7.294456   6.674289
    32  C    8.035120   8.649935   8.173273   6.563781   5.828139
    33  C    6.649129   7.296359   6.820312   5.213157   4.459189
    34  H    6.876868   7.297953   7.621261   5.564523   5.312424
    35  H    9.135887   9.579920   9.709241   7.704354   7.302937
    36  H    9.865722  10.407229  10.128728   8.356446   7.729100
    37  H    8.644231   9.282164   8.633450   7.196060   6.394261
    38  H    6.198870   6.905958   6.196026   4.841567   3.973788
                   11         12         13         14         15
    11  H    0.000000
    12  C    2.965087   0.000000
    13  H    4.026456   1.092274   0.000000
    14  H    2.844250   1.089591   1.762754   0.000000
    15  H    3.101620   1.088773   1.757534   1.776958   0.000000
    16  H    3.067842   2.184631   2.616080   3.078768   2.453217
    17  C    3.457664   3.029679   3.309730   2.768684   4.055619
    18  C    3.575355   4.095636   4.557823   3.609597   5.019665
    19  C    4.676093   5.037355   5.387876   4.350736   5.974185
    20  C    5.498745   5.142457   5.245529   4.410586   6.125889
    21  C    5.420733   4.336328   4.200736   3.741070   5.361328
    22  C    4.509465   3.205218   3.076923   2.858023   4.282459
    23  H    3.233026   4.491685   5.119022   4.102745   5.291957
    24  H    5.154255   5.951534   6.390090   5.223747   6.826963
    25  H    6.443137   6.109441   6.174158   5.312837   7.062689
    26  H    6.327482   4.870365   4.531243   4.303084   5.852316
    27  H    4.907077   2.942825   2.465500   2.873755   3.986610
    28  C    4.773852   5.076993   5.326113   5.301448   5.914343
    29  C    5.724980   5.455248   5.456597   5.626092   6.412526
    30  C    6.939127   6.807298   6.780630   6.908363   7.782851
    31  C    7.321448   7.684956   7.804589   7.767025   8.605027
    32  C    6.608081   7.425718   7.718316   7.539241   8.245656
    33  C    5.328517   6.213154   6.586815   6.391917   6.969581
    34  H    5.718961   4.902452   4.724832   5.098732   5.900720
    35  H    7.750359   7.315535   7.150490   7.388760   8.330983
    36  H    8.351246   8.727060   8.816476   8.775529   9.664185
    37  H    7.212961   8.317565   8.680343   8.413741   9.088886
    38  H    4.983113   6.300209   6.816977   6.504632   6.927092
                   16         17         18         19         20
    16  H    0.000000
    17  C    3.452893   0.000000
    18  C    4.481961   1.396499   0.000000
    19  C    5.758014   2.427010   1.386834   0.000000
    20  C    6.187597   2.810720   2.404500   1.387771   0.000000
    21  C    5.493498   2.425586   2.764289   2.395995   1.388079
    22  C    4.140632   1.395816   2.388556   2.766014   2.405600
    23  H    4.510991   2.143306   1.083923   2.140839   3.383758
    24  H    6.597165   3.402995   2.142214   1.083220   2.146214
    25  H    7.256973   3.893499   3.387493   2.148521   1.082783
    26  H    6.182769   3.401471   3.847471   3.380225   2.146076
    27  H    3.892392   2.143724   3.372913   3.849101   3.383263
    28  C    4.000430   2.990645   3.233090   4.321510   5.060044
    29  C    4.698226   3.107813   3.486732   4.263746   4.675937
    30  C    6.070097   4.264233   4.357763   4.841419   5.219251
    31  C    6.761084   5.098301   4.904706   5.391911   6.019421
    32  C    6.300574   5.028743   4.727180   5.436149   6.321418
    33  C    4.989831   4.103642   3.954590   4.946076   5.895350
    34  H    4.402839   2.779776   3.513531   4.230427   4.353466
    35  H    6.755375   4.786047   4.952865   5.225095   5.344636
    36  H    7.838428   6.065334   5.788584   6.105008   6.672305
    37  H    7.122592   5.960356   5.517776   6.172771   7.151222
    38  H    4.931732   4.525794   4.304898   5.393943   6.474236
                   21         22         23         24         25
    21  C    0.000000
    22  C    1.386721   0.000000
    23  H    3.848197   3.372495   0.000000
    24  H    3.380540   3.849204   2.460289   0.000000
    25  H    2.148645   3.388185   4.279000   2.477572   0.000000
    26  H    1.083213   2.141674   4.931388   4.279494   2.477008
    27  H    2.139216   1.083280   4.270812   4.932289   4.277654
    28  C    4.914607   3.983863   3.048188   4.887069   6.018570
    29  C    4.404219   3.648742   3.678473   4.921016   5.546285
    30  C    5.144749   4.682571   4.502291   5.307408   5.909000
    31  C    6.183272   5.752748   4.765299   5.623086   6.660589
    32  C    6.556822   5.972103   4.296464   5.590808   7.057175
    33  C    6.003666   5.208624   3.441884   5.245347   6.771701
    34  H    3.787307   2.958621   3.971818   5.061673   5.241495
    35  H    5.191765   4.908122   5.272113   5.719513   5.909898
    36  H    6.918436   6.629850   5.664709   6.227310   7.188650
    37  H    7.505460   6.966446   4.950028   6.173079   7.832302
    38  H    6.631398   5.772784   3.572542   5.613844   7.374043
                   26         27         28         29         30
    26  H    0.000000
    27  H    2.457703   0.000000
    28  C    5.799770   4.346883   0.000000
    29  C    5.133123   3.934206   1.391886   0.000000
    30  C    5.789435   5.034335   2.412272   1.386552   0.000000
    31  C    6.921818   6.218626   2.789247   2.404177   1.388197
    32  C    7.430080   6.489572   2.412887   2.772553   2.401580
    33  C    6.939717   5.682201   1.391515   2.398508   2.770811
    34  H    4.386139   3.041300   2.144456   1.082526   2.142354
    35  H    5.658807   5.177067   3.391052   2.142125   1.082852
    36  H    7.590609   7.108315   3.872058   3.385796   2.146635
    37  H    8.402578   7.527497   3.392001   3.855437   3.384233
    38  H    7.620072   6.255848   2.138831   3.377185   3.853613
                   31         32         33         34         35
    31  C    0.000000
    32  C    1.388383   0.000000
    33  C    2.403201   1.386362   0.000000
    34  H    3.384169   3.855076   3.380334   0.000000
    35  H    2.146226   3.384285   3.853598   2.464378   0.000000
    36  H    1.082815   2.146952   3.385183   4.278361   2.474184
    37  H    2.146282   1.082904   2.143002   4.937955   4.280775
    38  H    3.386668   2.146982   1.082860   4.270914   4.936355
                   36         37         38
    36  H    0.000000
    37  H    2.474378   0.000000
    38  H    4.282608   2.472940   0.000000
 Stoichiometry    C17H19NO
 Framework group  C1[X(C17H19NO)]
 Deg. of freedom   108
 Full point group                 C1      NOp   1
 Largest Abelian subgroup         C1      NOp   1
 Largest concise Abelian subgroup C1      NOp   1
                         Standard orientation:                         
 ---------------------------------------------------------------------
 Center     Atomic      Atomic             Coordinates (Angstroms)
 Number     Number       Type             X           Y           Z
 ---------------------------------------------------------------------
      1          6           0        0.872270   -0.215339   -0.509750
      2          6           0        0.025590   -1.363279   -0.401010
      3          8           0        0.464070   -2.529069   -0.407750
      4          6           0        2.209810   -0.472719   -0.823280
      5          6           0        4.341000   -1.878169    0.767920
      6          1           0        4.424370   -2.478279   -0.138860
      7          1           0        5.078680   -1.078779    0.723190
      8          1           0        4.565890   -2.513039    1.627850
      9          7           0        3.004090   -1.304399    0.833740
     10          1           0        2.287930   -2.014989    0.936830
     11          1           0        2.905100   -0.626659    1.578320
     12          6           0        3.216900    0.597211   -1.104340
     13          1           0        3.030680    1.011241   -2.097800
     14          1           0        3.156130    1.414571   -0.386400
     15          1           0        4.227720    0.192651   -1.104860
     16          1           0        2.384250   -1.408469   -1.342150
     17          6           0        0.420970    1.128931   -0.065590
     18          6           0       -0.071630    1.322351    1.226750
     19          6           0       -0.509730    2.566941    1.653800
     20          6           0       -0.452530    3.657311    0.797220
     21          6           0        0.043490    3.487431   -0.488030
     22          6           0        0.470170    2.237891   -0.911810
     23          1           0       -0.115930    0.477621    1.904510
     24          1           0       -0.892020    2.686601    2.660230
     25          1           0       -0.792150    4.630851    1.127820
     26          1           0        0.088900    4.329781   -1.167540
     27          1           0        0.831790    2.112971   -1.925280
     28          6           0       -1.462350   -1.185540   -0.266320
     29          6           0       -2.167190   -0.279560   -1.053560
     30          6           0       -3.544860   -0.171510   -0.940080
     31          6           0       -4.231460   -0.955720   -0.023190
     32          6           0       -3.535690   -1.861160    0.766550
     33          6           0       -2.160930   -1.982750    0.635210
     34          1           0       -1.634310    0.340530   -1.763060
     35          1           0       -4.083680    0.528160   -1.566740
     36          1           0       -5.306020   -0.863690    0.073450
     37          1           0       -4.066270   -2.475390    1.483410
     38          1           0       -1.615270   -2.696250    1.239990
 ---------------------------------------------------------------------
 Rotational constants (GHZ):           0.4661803           0.3157525           0.2204180
 Standard basis: def2TZVP (5D, 7F)
 There are   798 symmetry adapted cartesian basis functions of A   symmetry.
 There are   703 symmetry adapted basis functions of A   symmetry.
   703 basis functions,  1121 primitive gaussians,   798 cartesian basis functions
    68 alpha electrons       68 beta electrons
       nuclear repulsion energy      1387.0125128764 Hartrees.
 NAtoms=   38 NActive=   38 NUniq=   38 SFac= 1.00D+00 NAtFMM=   60 NAOKFM=F Big=F
 Integral buffers will be    131072 words long.
 Raffenetti 2 integral format.
 Two-electron integral symmetry is turned on.
 Nuclear repulsion after empirical dispersion term =     1386.9822647447 Hartrees.
 Force inversion solution in PCM.
 ------------------------------------------------------------------------------
 Polarizable Continuum Model (PCM)
 =================================
 Model                : PCM.
 Atomic radii         : UFF (Universal Force Field).
 Polarization charges : Total charges.
 Charge compensation  : None.
 Solution method      : Matrix inversion.
 Cavity type          : Scaled VdW (van der Waals Surface) (Alpha=1.100).
 Cavity algorithm     : GePol (No added spheres)
                        Default sphere list used, NSphG=   38.
                        Lebedev-Laikov grids with approx.  5.0 points / Ang**2.
                        Smoothing algorithm: York/Karplus (Gamma=1.0000).
                        Polarization charges: spherical gaussians, with
                                              point-specific exponents (IZeta= 3).
                        Self-potential: point-specific (ISelfS= 7).
                        Self-field    : sphere-specific E.n sum rule (ISelfD= 2).
 1st derivatives      : Analytical E(r).r(x)/FMM algorithm (CHGder, D1EAlg=3).
                        Cavity 1st derivative terms included.
 2nd derivatives      : Analytical E(r).r(xy)/FMM algorithm (CHGder, D2EAlg=3).
                        Cavity 2nd derivative terms included.
 Solvent              : Water, Eps=  78.355300 Eps(inf)=   1.777849
 ------------------------------------------------------------------------------
 One-electron integrals computed using PRISM.
   1 Symmetry operations used in ECPInt.
 ECPInt:  NShTT=   40755 NPrTT=  122740 LenC2=   36853 LenP2D=   80170.
 LDataN:  DoStor=T MaxTD1= 6 Len=  172
 NBasis=   703 RedAO= T EigKep=  6.89D-06  NBF=   703
 NBsUse=   703 1.00D-06 EigRej= -1.00D+00 NBFU=   703
 ExpMin= 9.52D-02 ExpMax= 2.70D+04 ExpMxC= 9.22D+02 IAcc=3 IRadAn=         5 AccDes= 0.00D+00
 Harris functional with IExCor= 4639 and IRadAn=       5 diagonalized for initial guess.
 HarFok:  IExCor= 4639 AccDes= 0.00D+00 IRadAn=         5 IDoV= 1 UseB2=F ITyADJ=14
 ICtDFT=  3500011 ScaDFX=  1.000000  1.000000  1.000000  1.000000
 FoFCou: FMM=F IPFlag=           0 FMFlag=      100000 FMFlg1=           0
         NFxFlg=           0 DoJE=T BraDBF=F KetDBF=T FulRan=T
         wScrn=  0.000000 ICntrl=       500 IOpCl=  0 I1Cent=   200000004 NGrid=           0
         NMat0=    1 NMatS0=      1 NMatT0=    0 NMatD0=    1 NMtDS0=    0 NMtDT0=    0
 Petite list used in FoFCou.
 Requested convergence on RMS density matrix=1.00D-08 within 128 cycles.
 Requested convergence on MAX density matrix=1.00D-06.
 Requested convergence on             energy=1.00D-06.
 No special actions if energy rises.
 Inv3:  Mode=1 IEnd=    22621548.
 Iteration    1 A*A^-1 deviation from unit magnitude is 5.66D-15 for   2720.
 Iteration    1 A*A^-1 deviation from orthogonality  is 2.55D-15 for   2737     53.
 Iteration    1 A^-1*A deviation from unit magnitude is 5.44D-15 for   2720.
 Iteration    1 A^-1*A deviation from orthogonality  is 2.37D-15 for   2228   1523.
 Error on total polarization charges =  0.01664
 SCF Done:  E(RwB97XD) =  -789.220304469     A.U. after   15 cycles
            NFock= 15  Conv=0.33D-08     -V/T= 2.0049
 DoSCS=F DFT=T ScalE2(SS,OS)=  1.000000  1.000000
 Range of M.O.s used for correlation:     1   703
 NBasis=   703 NAE=    68 NBE=    68 NFC=     0 NFV=     0
 NROrb=    703 NOA=    68 NOB=    68 NVA=   635 NVB=   635

 **** Warning!!: The largest alpha MO coefficient is  0.56153364D+02

   1 Symmetry operations used in ECPInt.
 ECPInt:  NShTT=   40755 NPrTT=  122740 LenC2=   36853 LenP2D=   80170.
 LDataN:  DoStor=T MaxTD1= 7 Len=  274
 Number of processors reduced to  13 by ecpmxn.
 Symmetrizing basis deriv contribution to polar:
 IMax=3 JMax=2 DiffMx= 0.00D+00
 G2DrvN: will do    39 centers at a time, making    1 passes.
 Calling FoFCou, ICntrl=  3107 FMM=F I1Cent=   0 AccDes= 0.00D+00.
 NEqPCM:  Using equilibrium solvation (IEInf=0, Eps=  78.3553, EpsInf=   1.7778)
 G2PCM: DoFxE=T DoFxN=T DoGrad=T DoDP/DQ/DG/TGxP=FFFF NFrqRd=   0 IEInf=0 SqF1=F DoCFld=F IF1Alg=4.
 End of G2Drv F.D. properties file   721 does not exist.
 End of G2Drv F.D. properties file   722 does not exist.
 End of G2Drv F.D. properties file   788 does not exist.
          IDoAtm=11111111111111111111111111111111111111
 NEqPCM:  Using equilibrium solvation (IEInf=0, Eps=  78.3553, EpsInf=   1.7778)
          Differentiating once with respect to nuclear coordinates.
 CalDSu exits because no D1Ps are significant.
          There are   117 degrees of freedom in the 1st order CPHF.  IDoFFX=6 NUNeed=     0.
    111 vectors produced by pass  0 Test12= 4.32D-14 1.00D-09 XBig12= 1.10D-01 1.43D-01.
 AX will form   111 AO Fock derivatives at one time.
    111 vectors produced by pass  1 Test12= 4.32D-14 1.00D-09 XBig12= 2.11D-02 3.98D-02.
    111 vectors produced by pass  2 Test12= 4.32D-14 1.00D-09 XBig12= 5.44D-04 3.43D-03.
    111 vectors produced by pass  3 Test12= 4.32D-14 1.00D-09 XBig12= 7.71D-06 3.20D-04.
    111 vectors produced by pass  4 Test12= 4.32D-14 1.00D-09 XBig12= 8.43D-08 3.01D-05.
    111 vectors produced by pass  5 Test12= 4.32D-14 1.00D-09 XBig12= 7.10D-10 2.68D-06.
    111 vectors produced by pass  6 Test12= 4.32D-14 1.00D-09 XBig12= 5.03D-12 1.99D-07.
     50 vectors produced by pass  7 Test12= 4.32D-14 1.00D-09 XBig12= 3.75D-14 1.59D-08.
     13 vectors produced by pass  8 Test12= 4.32D-14 1.00D-09 XBig12= 7.32D-15 6.92D-09.
     12 vectors produced by pass  9 Test12= 4.32D-14 1.00D-09 XBig12= 6.37D-15 6.74D-09.
      6 vectors produced by pass 10 Test12= 4.32D-14 1.00D-09 XBig12= 4.73D-15 4.16D-09.
      6 vectors produced by pass 11 Test12= 4.32D-14 1.00D-09 XBig12= 6.90D-15 6.71D-09.
      6 vectors produced by pass 12 Test12= 4.32D-14 1.00D-09 XBig12= 1.01D-14 6.52D-09.
      6 vectors produced by pass 13 Test12= 4.32D-14 1.00D-09 XBig12= 5.39D-15 5.77D-09.
      6 vectors produced by pass 14 Test12= 4.32D-14 1.00D-09 XBig12= 1.10D-14 5.86D-09.
      6 vectors produced by pass 15 Test12= 4.32D-14 1.00D-09 XBig12= 6.96D-15 5.88D-09.
      6 vectors produced by pass 16 Test12= 4.32D-14 1.00D-09 XBig12= 5.91D-15 4.11D-09.
      4 vectors produced by pass 17 Test12= 4.32D-14 1.00D-09 XBig12= 3.51D-15 3.75D-09.
      4 vectors produced by pass 18 Test12= 4.32D-14 1.00D-09 XBig12= 5.90D-15 5.41D-09.
      4 vectors produced by pass 19 Test12= 4.32D-14 1.00D-09 XBig12= 1.26D-14 6.85D-09.
      4 vectors produced by pass 20 Test12= 4.32D-14 1.00D-09 XBig12= 5.60D-15 4.65D-09.
      3 vectors produced by pass 21 Test12= 4.32D-14 1.00D-09 XBig12= 2.94D-15 3.24D-09.
      3 vectors produced by pass 22 Test12= 4.32D-14 1.00D-09 XBig12= 1.24D-15 2.04D-09.
      3 vectors produced by pass 23 Test12= 4.32D-14 1.00D-09 XBig12= 1.57D-15 2.53D-09.
      3 vectors produced by pass 24 Test12= 4.32D-14 1.00D-09 XBig12= 1.95D-15 2.63D-09.
      2 vectors produced by pass 25 Test12= 4.32D-14 1.00D-09 XBig12= 1.07D-15 2.35D-09.
 InvSVY:  IOpt=1 It=  1 EMax= 5.55D-16
 Solved reduced A of dimension   924 with   117 vectors.
 End of Minotr F.D. properties file   721 does not exist.
 End of Minotr F.D. properties file   722 does not exist.
 End of Minotr F.D. properties file   788 does not exist.

 **********************************************************************

            Population analysis using the SCF density.

 **********************************************************************

 Orbital symmetries:
       Occupied  (A) (A) (A) (A) (A) (A) (A) (A) (A) (A) (A) (A)
                 (A) (A) (A) (A) (A) (A) (A) (A) (A) (A) (A) (A)
                 (A) (A) (A) (A) (A) (A) (A) (A) (A) (A) (A) (A)
                 (A) (A) (A) (A) (A) (A) (A) (A) (A) (A) (A) (A)
                 (A) (A) (A) (A) (A) (A) (A) (A) (A) (A) (A) (A)
                 (A) (A) (A) (A) (A) (A) (A) (A)
       Virtual   (A) (A) (A) (A) (A) (A) (A) (A) (A) (A) (A) (A)
                 (A) (A) (A) (A) (A) (A) (A) (A) (A) (A) (A) (A)
                 (A) (A) (A) (A) (A) (A) (A) (A) (A) (A) (A) (A)
                 (A) (A) (A) (A) (A) (A) (A) (A) (A) (A) (A) (A)
                 (A) (A) (A) (A) (A) (A) (A) (A) (A) (A) (A) (A)
                 (A) (A) (A) (A) (A) (A) (A) (A) (A) (A) (A) (A)
                 (A) (A) (A) (A) (A) (A) (A) (A) (A) (A) (A) (A)
                 (A) (A) (A) (A) (A) (A) (A) (A) (A) (A) (A) (A)
                 (A) (A) (A) (A) (A) (A) (A) (A) (A) (A) (A) (A)
                 (A) (A) (A) (A) (A) (A) (A) (A) (A) (A) (A) (A)
                 (A) (A) (A) (A) (A) (A) (A) (A) (A) (A) (A) (A)
                 (A) (A) (A) (A) (A) (A) (A) (A) (A) (A) (A) (A)
                 (A) (A) (A) (A) (A) (A) (A) (A) (A) (A) (A) (A)
                 (A) (A) (A) (A) (A) (A) (A) (A) (A) (A) (A) (A)
                 (A) (A) (A) (A) (A) (A) (A) (A) (A) (A) (A) (A)
                 (A) (A) (A) (A) (A) (A) (A) (A) (A) (A) (A) (A)
                 (A) (A) (A) (A) (A) (A) (A) (A) (A) (A) (A) (A)
                 (A) (A) (A) (A) (A) (A) (A) (A) (A) (A) (A) (A)
                 (A) (A) (A) (A) (A) (A) (A) (A) (A) (A) (A) (A)
                 (A) (A) (A) (A) (A) (A) (A) (A) (A) (A) (A) (A)
                 (A) (A) (A) (A) (A) (A) (A) (A) (A) (A) (A) (A)
                 (A) (A) (A) (A) (A) (A) (A) (A) (A) (A) (A) (A)
                 (A) (A) (A) (A) (A) (A) (A) (A) (A) (A) (A) (A)
                 (A) (A) (A) (A) (A) (A) (A) (A) (A) (A) (A) (A)
                 (A) (A) (A) (A) (A) (A) (A) (A) (A) (A) (A) (A)
                 (A) (A) (A) (A) (A) (A) (A) (A) (A) (A) (A) (A)
                 (A) (A) (A) (A) (A) (A) (A) (A) (A) (A) (A) (A)
                 (A) (A) (A) (A) (A) (A) (A) (A) (A) (A) (A) (A)
                 (A) (A) (A) (A) (A) (A) (A) (A) (A) (A) (A) (A)
                 (A) (A) (A) (A) (A) (A) (A) (A) (A) (A) (A) (A)
                 (A) (A) (A) (A) (A) (A) (A) (A) (A) (A) (A) (A)
                 (A) (A) (A) (A) (A) (A) (A) (A) (A) (A) (A) (A)
                 (A) (A) (A) (A) (A) (A) (A) (A) (A) (A) (A) (A)
                 (A) (A) (A) (A) (A) (A) (A) (A) (A) (A) (A) (A)
                 (A) (A) (A) (A) (A) (A) (A) (A) (A) (A) (A) (A)
                 (A) (A) (A) (A) (A) (A) (A) (A) (A) (A) (A) (A)
                 (A) (A) (A) (A) (A) (A) (A) (A) (A) (A) (A) (A)
                 (A) (A) (A) (A) (A) (A) (A) (A) (A) (A) (A) (A)
                 (A) (A) (A) (A) (A) (A) (A) (A) (A) (A) (A) (A)
                 (A) (A) (A) (A) (A) (A) (A) (A) (A) (A) (A) (A)
                 (A) (A) (A) (A) (A) (A) (A) (A) (A) (A) (A) (A)
                 (A) (A) (A) (A) (A) (A) (A) (A) (A) (A) (A) (A)
                 (A) (A) (A) (A) (A) (A) (A) (A) (A) (A) (A) (A)
                 (A) (A) (A) (A) (A) (A) (A) (A) (A) (A) (A) (A)
                 (A) (A) (A) (A) (A) (A) (A) (A) (A) (A) (A) (A)
                 (A) (A) (A) (A) (A) (A) (A) (A) (A) (A) (A) (A)
                 (A) (A) (A) (A) (A) (A) (A) (A) (A) (A) (A) (A)
                 (A) (A) (A) (A) (A) (A) (A) (A) (A) (A) (A) (A)
                 (A) (A) (A) (A) (A) (A) (A) (A) (A) (A) (A) (A)
                 (A) (A) (A) (A) (A) (A) (A) (A) (A) (A) (A) (A)
                 (A) (A) (A) (A) (A) (A) (A) (A) (A) (A) (A) (A)
                 (A) (A) (A) (A) (A) (A) (A) (A) (A) (A) (A) (A)
                 (A) (A) (A) (A) (A) (A) (A) (A) (A) (A) (A)
 The electronic state is 1-A.
 Alpha  occ. eigenvalues --  -19.20668 -14.46026 -10.35125 -10.33216 -10.31173
 Alpha  occ. eigenvalues --  -10.29448 -10.29302 -10.29044 -10.28990 -10.28944
 Alpha  occ. eigenvalues --  -10.28906 -10.28881 -10.28612 -10.28592 -10.28470
 Alpha  occ. eigenvalues --  -10.28262 -10.28249 -10.27924 -10.25811  -1.11158
 Alpha  occ. eigenvalues --   -1.01794  -0.96696  -0.96151  -0.90773  -0.86423
 Alpha  occ. eigenvalues --   -0.85050  -0.84655  -0.84459  -0.80076  -0.77885
 Alpha  occ. eigenvalues --   -0.72933  -0.70365  -0.70040  -0.69783  -0.66914
 Alpha  occ. eigenvalues --   -0.63223  -0.61664  -0.61200  -0.58471  -0.56516
 Alpha  occ. eigenvalues --   -0.55802  -0.54921  -0.54481  -0.53539  -0.53093
 Alpha  occ. eigenvalues --   -0.52585  -0.52003  -0.50909  -0.50421  -0.49206
 Alpha  occ. eigenvalues --   -0.49004  -0.48185  -0.47474  -0.46158  -0.46002
 Alpha  occ. eigenvalues --   -0.45736  -0.44770  -0.43546  -0.42434  -0.42226
 Alpha  occ. eigenvalues --   -0.41429  -0.39359  -0.34692  -0.34080  -0.33357
 Alpha  occ. eigenvalues --   -0.33068  -0.31465  -0.26885
 Alpha virt. eigenvalues --    0.02025   0.04601   0.05716   0.05887   0.07589
 Alpha virt. eigenvalues --    0.10190   0.12852   0.13299   0.13685   0.14372
 Alpha virt. eigenvalues --    0.15326   0.15846   0.16279   0.16584   0.17156
 Alpha virt. eigenvalues --    0.18137   0.18519   0.18795   0.19044   0.19141
 Alpha virt. eigenvalues --    0.20174   0.20239   0.20587   0.21555   0.22034
 Alpha virt. eigenvalues --    0.22747   0.23128   0.23893   0.24186   0.24743
 Alpha virt. eigenvalues --    0.25320   0.25960   0.27034   0.27978   0.28005
 Alpha virt. eigenvalues --    0.28885   0.29316   0.29463   0.29768   0.30187
 Alpha virt. eigenvalues --    0.31043   0.31298   0.31865   0.32057   0.32622
 Alpha virt. eigenvalues --    0.33258   0.33621   0.34188   0.34675   0.34999
 Alpha virt. eigenvalues --    0.35549   0.35945   0.36442   0.36966   0.38060
 Alpha virt. eigenvalues --    0.38380   0.39133   0.39801   0.40028   0.40975
 Alpha virt. eigenvalues --    0.41287   0.42168   0.42756   0.43340   0.43566
 Alpha virt. eigenvalues --    0.44171   0.44485   0.44854   0.45535   0.46024
 Alpha virt. eigenvalues --    0.46465   0.46540   0.46799   0.47700   0.48336
 Alpha virt. eigenvalues --    0.48868   0.49141   0.49354   0.49687   0.50115
 Alpha virt. eigenvalues --    0.50595   0.50775   0.51056   0.51552   0.52075
 Alpha virt. eigenvalues --    0.52611   0.52933   0.53246   0.53441   0.54168
 Alpha virt. eigenvalues --    0.54596   0.54869   0.55229   0.55376   0.55883
 Alpha virt. eigenvalues --    0.57063   0.57757   0.58056   0.58442   0.58545
 Alpha virt. eigenvalues --    0.58849   0.59473   0.60387   0.60862   0.61296
 Alpha virt. eigenvalues --    0.61712   0.62312   0.62967   0.63914   0.64410
 Alpha virt. eigenvalues --    0.65315   0.66226   0.66311   0.67248   0.67656
 Alpha virt. eigenvalues --    0.69929   0.70213   0.71387   0.73019   0.73299
 Alpha virt. eigenvalues --    0.74152   0.74524   0.75067   0.75854   0.76106
 Alpha virt. eigenvalues --    0.76451   0.77266   0.78137   0.78427   0.78901
 Alpha virt. eigenvalues --    0.79218   0.79883   0.80806   0.81168   0.81896
 Alpha virt. eigenvalues --    0.82668   0.83093   0.83552   0.85306   0.86071
 Alpha virt. eigenvalues --    0.87582   0.88137   0.88536   0.89767   0.90237
 Alpha virt. eigenvalues --    0.91846   0.92261   0.92776   0.93322   0.94171
 Alpha virt. eigenvalues --    0.95464   0.96011   0.96884   0.97312   0.97662
 Alpha virt. eigenvalues --    0.99219   0.99877   1.00032   1.00632   1.01152
 Alpha virt. eigenvalues --    1.02979   1.03128   1.03568   1.04273   1.04827
 Alpha virt. eigenvalues --    1.05966   1.07369   1.07811   1.09038   1.09804
 Alpha virt. eigenvalues --    1.10474   1.11574   1.12947   1.13331   1.13944
 Alpha virt. eigenvalues --    1.14185   1.15971   1.16743   1.18702   1.19165
 Alpha virt. eigenvalues --    1.19708   1.20236   1.20984   1.22647   1.23325
 Alpha virt. eigenvalues --    1.23811   1.24877   1.25286   1.26969   1.28559
 Alpha virt. eigenvalues --    1.29249   1.30348   1.31397   1.31802   1.32449
 Alpha virt. eigenvalues --    1.33385   1.34062   1.34521   1.35811   1.35976
 Alpha virt. eigenvalues --    1.36440   1.37173   1.37871   1.38595   1.38802
 Alpha virt. eigenvalues --    1.39609   1.40258   1.41889   1.43098   1.44977
 Alpha virt. eigenvalues --    1.45971   1.47309   1.48316   1.49579   1.50444
 Alpha virt. eigenvalues --    1.51740   1.51921   1.52512   1.53524   1.54085
 Alpha virt. eigenvalues --    1.54867   1.55204   1.56359   1.57258   1.58024
 Alpha virt. eigenvalues --    1.58223   1.58916   1.60513   1.61031   1.61476
 Alpha virt. eigenvalues --    1.62229   1.63023   1.63255   1.64141   1.64840
 Alpha virt. eigenvalues --    1.64989   1.66708   1.66946   1.67491   1.67629
 Alpha virt. eigenvalues --    1.68966   1.70823   1.71345   1.72294   1.72630
 Alpha virt. eigenvalues --    1.73203   1.74112   1.75123   1.75719   1.76133
 Alpha virt. eigenvalues --    1.77055   1.77421   1.78338   1.78724   1.79612
 Alpha virt. eigenvalues --    1.79688   1.80365   1.80697   1.81328   1.82273
 Alpha virt. eigenvalues --    1.82748   1.83666   1.84847   1.85828   1.86329
 Alpha virt. eigenvalues --    1.88942   1.89687   1.90409   1.91506   1.92203
 Alpha virt. eigenvalues --    1.93858   1.94664   1.95005   1.96437   1.96835
 Alpha virt. eigenvalues --    1.97791   1.99134   1.99787   2.01512   2.03402
 Alpha virt. eigenvalues --    2.04581   2.05383   2.06214   2.06615   2.09238
 Alpha virt. eigenvalues --    2.09832   2.10279   2.11293   2.11906   2.13031
 Alpha virt. eigenvalues --    2.14088   2.14462   2.15400   2.15974   2.16993
 Alpha virt. eigenvalues --    2.17964   2.18287   2.19898   2.20672   2.21405
 Alpha virt. eigenvalues --    2.22628   2.23317   2.25145   2.26157   2.27837
 Alpha virt. eigenvalues --    2.28220   2.29293   2.30140   2.31432   2.32210
 Alpha virt. eigenvalues --    2.32912   2.33892   2.35797   2.36538   2.37826
 Alpha virt. eigenvalues --    2.38147   2.39576   2.40076   2.41868   2.42655
 Alpha virt. eigenvalues --    2.42789   2.43783   2.45001   2.48021   2.48567
 Alpha virt. eigenvalues --    2.49133   2.50375   2.52183   2.52684   2.54805
 Alpha virt. eigenvalues --    2.55036   2.56585   2.56892   2.58087   2.59286
 Alpha virt. eigenvalues --    2.60345   2.60462   2.61076   2.62507   2.62951
 Alpha virt. eigenvalues --    2.64269   2.66281   2.66611   2.67471   2.68199
 Alpha virt. eigenvalues --    2.69327   2.69986   2.70430   2.70815   2.72093
 Alpha virt. eigenvalues --    2.73416   2.73802   2.74753   2.74840   2.75415
 Alpha virt. eigenvalues --    2.75696   2.76227   2.76441   2.77199   2.77659
 Alpha virt. eigenvalues --    2.77886   2.78537   2.79378   2.79780   2.81117
 Alpha virt. eigenvalues --    2.81224   2.81590   2.82059   2.83644   2.84467
 Alpha virt. eigenvalues --    2.84921   2.85324   2.86520   2.87050   2.87507
 Alpha virt. eigenvalues --    2.88133   2.89288   2.89331   2.89626   2.90769
 Alpha virt. eigenvalues --    2.91186   2.91531   2.92751   2.92896   2.93222
 Alpha virt. eigenvalues --    2.93835   2.95009   2.95594   2.96417   2.97246
 Alpha virt. eigenvalues --    2.98385   2.99533   3.00171   3.00337   3.01661
 Alpha virt. eigenvalues --    3.03066   3.03365   3.04913   3.06513   3.06760
 Alpha virt. eigenvalues --    3.08341   3.09025   3.10290   3.11054   3.12006
 Alpha virt. eigenvalues --    3.13838   3.14159   3.15038   3.15830   3.16512
 Alpha virt. eigenvalues --    3.17402   3.18762   3.19227   3.19903   3.20811
 Alpha virt. eigenvalues --    3.21247   3.21476   3.21630   3.22903   3.23190
 Alpha virt. eigenvalues --    3.23774   3.24355   3.25047   3.25346   3.25405
 Alpha virt. eigenvalues --    3.27208   3.27559   3.28473   3.28601   3.29159
 Alpha virt. eigenvalues --    3.29914   3.30234   3.31092   3.32062   3.33448
 Alpha virt. eigenvalues --    3.33585   3.34674   3.35568   3.35984   3.37063
 Alpha virt. eigenvalues --    3.37242   3.38707   3.39085   3.40102   3.40576
 Alpha virt. eigenvalues --    3.41701   3.42440   3.43204   3.43739   3.44281
 Alpha virt. eigenvalues --    3.44853   3.45933   3.46786   3.47312   3.48038
 Alpha virt. eigenvalues --    3.48454   3.48797   3.49720   3.50069   3.51273
 Alpha virt. eigenvalues --    3.52007   3.53192   3.53324   3.54320   3.55491
 Alpha virt. eigenvalues --    3.56042   3.56756   3.57654   3.57988   3.58848
 Alpha virt. eigenvalues --    3.59209   3.59808   3.61024   3.61890   3.62259
 Alpha virt. eigenvalues --    3.63007   3.64220   3.64406   3.65278   3.66215
 Alpha virt. eigenvalues --    3.67140   3.68058   3.68431   3.69289   3.71867
 Alpha virt. eigenvalues --    3.73519   3.74201   3.74867   3.75487   3.77080
 Alpha virt. eigenvalues --    3.77902   3.78561   3.79148   3.81059   3.82221
 Alpha virt. eigenvalues --    3.84251   3.85864   3.86701   3.88428   3.89029
 Alpha virt. eigenvalues --    3.90224   3.90805   3.92398   3.93867   3.95090
 Alpha virt. eigenvalues --    3.98594   3.99388   4.00977   4.01458   4.03274
 Alpha virt. eigenvalues --    4.04352   4.05066   4.06453   4.07480   4.09673
 Alpha virt. eigenvalues --    4.12312   4.13325   4.14626   4.16017   4.16765
 Alpha virt. eigenvalues --    4.19091   4.20387   4.22070   4.22624   4.23971
 Alpha virt. eigenvalues --    4.25186   4.25533   4.26570   4.28880   4.30127
 Alpha virt. eigenvalues --    4.30652   4.31481   4.31916   4.32285   4.33111
 Alpha virt. eigenvalues --    4.34243   4.34975   4.36232   4.36837   4.37578
 Alpha virt. eigenvalues --    4.38705   4.39562   4.41572   4.42179   4.42796
 Alpha virt. eigenvalues --    4.44534   4.45098   4.47236   4.47764   4.50676
 Alpha virt. eigenvalues --    4.52727   4.52944   4.54730   4.58641   4.60117
 Alpha virt. eigenvalues --    4.62871   4.65845   4.66903   4.69788   4.72528
 Alpha virt. eigenvalues --    4.74465   4.76363   4.78193   4.79092   4.81614
 Alpha virt. eigenvalues --    4.82133   4.82950   4.84603   4.86744   4.87915
 Alpha virt. eigenvalues --    4.91939   4.96894   4.97919   4.98816   5.00266
 Alpha virt. eigenvalues --    5.01138   5.04064   5.04982   5.06003   5.07846
 Alpha virt. eigenvalues --    5.14019   5.16162   5.17318   5.20252   5.24504
 Alpha virt. eigenvalues --    5.25047   5.28535   5.31140   5.32487   5.33651
 Alpha virt. eigenvalues --    5.34468   5.35368   5.37057   5.38712   5.40749
 Alpha virt. eigenvalues --    5.47111   5.47653   5.51767   5.54116   5.57443
 Alpha virt. eigenvalues --    5.59078   5.61463   5.66526   5.69123   5.78124
 Alpha virt. eigenvalues --    5.79799   5.89554   5.94235   6.22944   6.43957
 Alpha virt. eigenvalues --    6.55890   6.70994   6.76382   6.98171   7.18260
 Alpha virt. eigenvalues --    7.24058  22.20719  22.28822  22.48837  22.55511
 Alpha virt. eigenvalues --   22.69761  22.71718  22.73668  22.74638  22.79499
 Alpha virt. eigenvalues --   22.89772  22.94077  22.96535  22.97023  23.14339
 Alpha virt. eigenvalues --   23.31493  23.36807  23.59169  32.17421  44.16359
          Condensed to atoms (all electrons):
               1          2          3          4          5          6
     1  C    6.436673   0.037234  -0.248812   0.303278  -0.002577  -0.001073
     2  C    0.037234   5.079057   0.632527  -0.040760   0.002991   0.000766
     3  O   -0.248812   0.632527   8.149076   0.034899   0.000638   0.000195
     4  C    0.303278  -0.040760   0.034899   5.316097   0.002818   0.003877
     5  C   -0.002577   0.002991   0.000638   0.002818   4.853337   0.418577
     6  H   -0.001073   0.000766   0.000195   0.003877   0.418577   0.526127
     7  H    0.000346  -0.000137  -0.000026  -0.006784   0.420830  -0.026773
     8  H   -0.000147  -0.000203   0.000052   0.001304   0.409700  -0.023868
     9  N   -0.021248  -0.017492  -0.007059   0.027954   0.221462  -0.044789
    10  H   -0.014268   0.000114   0.023583  -0.027223  -0.022401  -0.005471
    11  H   -0.002747   0.002121  -0.000174  -0.001567  -0.021515   0.006589
    12  C   -0.056539   0.017242   0.006753   0.197537   0.004591  -0.003135
    13  H    0.000460   0.000201  -0.000059  -0.039518  -0.000618  -0.000127
    14  H   -0.015060  -0.001753  -0.000016  -0.037080  -0.001612   0.000193
    15  H    0.013161  -0.000287  -0.000038  -0.057625   0.002316  -0.000480
    16  H   -0.066113  -0.005190   0.013966   0.445451  -0.000496   0.003379
    17  C    0.139387  -0.076704   0.005316  -0.132300  -0.000300   0.000065
    18  C   -0.095490  -0.015850  -0.000572  -0.009060  -0.000103  -0.000019
    19  C    0.002567  -0.000958  -0.000048   0.000561  -0.000001   0.000000
    20  C   -0.002292   0.000002  -0.000005   0.000097   0.000004   0.000000
    21  C    0.006840  -0.000396   0.000023  -0.000922  -0.000015  -0.000001
    22  C   -0.129044  -0.004375  -0.000411   0.005965   0.000017   0.000005
    23  H    0.003689  -0.001495  -0.000702   0.000187   0.000025   0.000004
    24  H   -0.000260  -0.000012   0.000002  -0.000017  -0.000000  -0.000000
    25  H    0.000058   0.000002   0.000000   0.000000   0.000000   0.000000
    26  H   -0.000493  -0.000010  -0.000000   0.000006   0.000000   0.000000
    27  H    0.004925  -0.000151  -0.000024  -0.001481   0.000002  -0.000000
    28  C   -0.207843   0.275625  -0.132243   0.036864   0.000182   0.000011
    29  C   -0.008033  -0.055280  -0.003182  -0.000211  -0.000006  -0.000001
    30  C   -0.007993   0.009315  -0.000549   0.000208   0.000000   0.000000
    31  C    0.002548  -0.005238   0.000641  -0.000068  -0.000000  -0.000000
    32  C   -0.006056   0.005384  -0.001733   0.000173   0.000000   0.000000
    33  C    0.070471  -0.141541   0.048187  -0.008172  -0.000053  -0.000004
    34  H    0.012874  -0.004866  -0.000219  -0.000183  -0.000002  -0.000000
    35  H   -0.000038  -0.000314   0.000010  -0.000004   0.000000   0.000000
    36  H    0.000006   0.000063   0.000000   0.000000  -0.000000  -0.000000
    37  H   -0.000007  -0.000199  -0.000104   0.000003   0.000000  -0.000000
    38  H    0.004141  -0.005895   0.017194  -0.000806  -0.000017  -0.000001
               7          8          9         10         11         12
     1  C    0.000346  -0.000147  -0.021248  -0.014268  -0.002747  -0.056539
     2  C   -0.000137  -0.000203  -0.017492   0.000114   0.002121   0.017242
     3  O   -0.000026   0.000052  -0.007059   0.023583  -0.000174   0.006753
     4  C   -0.006784   0.001304   0.027954  -0.027223  -0.001567   0.197537
     5  C    0.420830   0.409700   0.221462  -0.022401  -0.021515   0.004591
     6  H   -0.026773  -0.023868  -0.044789  -0.005471   0.006589  -0.003135
     7  H    0.517893  -0.021100  -0.033993   0.006021  -0.007085   0.002071
     8  H   -0.021100   0.524153  -0.025759  -0.004985  -0.003892   0.000328
     9  N   -0.033993  -0.025759   6.619315   0.365764   0.352946  -0.009194
    10  H    0.006021  -0.004985   0.365764   0.430357  -0.024399   0.006932
    11  H   -0.007085  -0.003892   0.352946  -0.024399   0.425831  -0.004679
    12  C    0.002071   0.000328  -0.009194   0.006932  -0.004679   4.967212
    13  H   -0.000024   0.000019   0.004972  -0.000222  -0.000113   0.419296
    14  H    0.000054  -0.000039  -0.001812   0.000019   0.001239   0.414545
    15  H   -0.002067   0.000377  -0.003859   0.000313  -0.000345   0.430466
    16  H    0.000214  -0.000495  -0.046167  -0.005058   0.003480  -0.027460
    17  C    0.000136  -0.000028  -0.006709  -0.000043   0.002612  -0.012059
    18  C    0.000021   0.000022   0.000470   0.000669   0.000453  -0.002615
    19  C   -0.000001  -0.000000  -0.000138  -0.000029  -0.000019  -0.000016
    20  C    0.000000  -0.000000  -0.000044  -0.000005   0.000031  -0.000127
    21  C   -0.000001   0.000000   0.000278   0.000008  -0.000087   0.002664
    22  C   -0.000022   0.000001   0.000100  -0.000212   0.000281   0.006306
    23  H    0.000005  -0.000009  -0.000409   0.000055   0.000581  -0.000112
    24  H   -0.000000   0.000000   0.000003   0.000002  -0.000007   0.000009
    25  H    0.000000  -0.000000  -0.000000  -0.000000   0.000000  -0.000002
    26  H    0.000000  -0.000000  -0.000001  -0.000000   0.000000   0.000029
    27  H    0.000000   0.000000   0.000015   0.000008   0.000000  -0.000727
    28  C    0.000001  -0.000010  -0.002229  -0.000305   0.000069  -0.000508
    29  C    0.000000   0.000000   0.000154   0.000143  -0.000014   0.000262
    30  C   -0.000000  -0.000000   0.000000  -0.000009   0.000001   0.000016
    31  C   -0.000000   0.000000   0.000001   0.000007  -0.000000  -0.000001
    32  C    0.000000  -0.000000  -0.000006  -0.000011   0.000002   0.000001
    33  C   -0.000000   0.000003   0.000462   0.000197  -0.000054  -0.000178
    34  H    0.000000   0.000000   0.000031   0.000022  -0.000002  -0.000139
    35  H   -0.000000  -0.000000  -0.000000  -0.000000   0.000000  -0.000000
    36  H   -0.000000   0.000000   0.000000   0.000000  -0.000000   0.000000
    37  H    0.000000  -0.000000   0.000000  -0.000001   0.000000   0.000000
    38  H   -0.000000   0.000002   0.000034   0.000293  -0.000011  -0.000003
              13         14         15         16         17         18
     1  C    0.000460  -0.015060   0.013161  -0.066113   0.139387  -0.095490
     2  C    0.000201  -0.001753  -0.000287  -0.005190  -0.076704  -0.015850
     3  O   -0.000059  -0.000016  -0.000038   0.013966   0.005316  -0.000572
     4  C   -0.039518  -0.037080  -0.057625   0.445451  -0.132300  -0.009060
     5  C   -0.000618  -0.001612   0.002316  -0.000496  -0.000300  -0.000103
     6  H   -0.000127   0.000193  -0.000480   0.003379   0.000065  -0.000019
     7  H   -0.000024   0.000054  -0.002067   0.000214   0.000136   0.000021
     8  H    0.000019  -0.000039   0.000377  -0.000495  -0.000028   0.000022
     9  N    0.004972  -0.001812  -0.003859  -0.046167  -0.006709   0.000470
    10  H   -0.000222   0.000019   0.000313  -0.005058  -0.000043   0.000669
    11  H   -0.000113   0.001239  -0.000345   0.003480   0.002612   0.000453
    12  C    0.419296   0.414545   0.430466  -0.027460  -0.012059  -0.002615
    13  H    0.517362  -0.020017  -0.018538  -0.001499  -0.010630  -0.000234
    14  H   -0.020017   0.522333  -0.021197   0.003960   0.021515  -0.000512
    15  H   -0.018538  -0.021197   0.518497  -0.005976  -0.000157   0.000155
    16  H   -0.001499   0.003960  -0.005976   0.528577   0.015378  -0.000521
    17  C   -0.010630   0.021515  -0.000157   0.015378   5.400521   0.377231
    18  C   -0.000234  -0.000512   0.000155  -0.000521   0.377231   5.156799
    19  C   -0.000013   0.000697  -0.000044   0.000048   0.038390   0.391781
    20  C    0.000034  -0.000521   0.000014   0.000005  -0.107021   0.034862
    21  C    0.000735   0.000806  -0.000067  -0.000089   0.027909  -0.080343
    22  C    0.002628  -0.009369   0.001214  -0.000700   0.326950   0.049513
    23  H   -0.000013  -0.000076   0.000003  -0.000003  -0.072338   0.454339
    24  H   -0.000000   0.000007   0.000000  -0.000001   0.015081  -0.062513
    25  H    0.000000   0.000001  -0.000000   0.000000  -0.004096   0.011722
    26  H   -0.000002   0.000020  -0.000002  -0.000000   0.014748  -0.004278
    27  H   -0.001317  -0.001556   0.000330  -0.000231  -0.072504   0.011310
    28  C   -0.000087  -0.000281   0.000056   0.000999  -0.041316   0.027099
    29  C    0.000022   0.000023  -0.000004   0.000118   0.016050  -0.010648
    30  C    0.000002  -0.000002  -0.000000   0.000024   0.000908   0.000822
    31  C   -0.000000   0.000000   0.000000  -0.000006   0.000321  -0.001051
    32  C    0.000000  -0.000001  -0.000000   0.000020  -0.000361   0.001195
    33  C   -0.000002   0.000013   0.000004  -0.000979   0.000083  -0.002488
    34  H   -0.000049   0.000016   0.000003  -0.000125  -0.001042  -0.001637
    35  H    0.000000  -0.000000  -0.000000  -0.000000   0.000100   0.000114
    36  H   -0.000000   0.000000   0.000000  -0.000000   0.000006  -0.000004
    37  H    0.000000  -0.000000  -0.000000   0.000000  -0.000003   0.000011
    38  H   -0.000000   0.000001   0.000000  -0.000123   0.000218   0.000196
              19         20         21         22         23         24
     1  C    0.002567  -0.002292   0.006840  -0.129044   0.003689  -0.000260
     2  C   -0.000958   0.000002  -0.000396  -0.004375  -0.001495  -0.000012
     3  O   -0.000048  -0.000005   0.000023  -0.000411  -0.000702   0.000002
     4  C    0.000561   0.000097  -0.000922   0.005965   0.000187  -0.000017
     5  C   -0.000001   0.000004  -0.000015   0.000017   0.000025  -0.000000
     6  H    0.000000   0.000000  -0.000001   0.000005   0.000004  -0.000000
     7  H   -0.000001   0.000000  -0.000001  -0.000022   0.000005  -0.000000
     8  H   -0.000000  -0.000000   0.000000   0.000001  -0.000009   0.000000
     9  N   -0.000138  -0.000044   0.000278   0.000100  -0.000409   0.000003
    10  H   -0.000029  -0.000005   0.000008  -0.000212   0.000055   0.000002
    11  H   -0.000019   0.000031  -0.000087   0.000281   0.000581  -0.000007
    12  C   -0.000016  -0.000127   0.002664   0.006306  -0.000112   0.000009
    13  H   -0.000013   0.000034   0.000735   0.002628  -0.000013  -0.000000
    14  H    0.000697  -0.000521   0.000806  -0.009369  -0.000076   0.000007
    15  H   -0.000044   0.000014  -0.000067   0.001214   0.000003   0.000000
    16  H    0.000048   0.000005  -0.000089  -0.000700  -0.000003  -0.000001
    17  C    0.038390  -0.107021   0.027909   0.326950  -0.072338   0.015081
    18  C    0.391781   0.034862  -0.080343   0.049513   0.454339  -0.062513
    19  C    5.042528   0.385372   0.030498  -0.087565  -0.053887   0.460702
    20  C    0.385372   5.040437   0.388765   0.047092   0.011327  -0.060267
    21  C    0.030498   0.388765   5.022995   0.376819  -0.004905   0.012560
    22  C   -0.087565   0.047092   0.376819   5.268605   0.014112  -0.005211
    23  H   -0.053887   0.011327  -0.004905   0.014112   0.513801  -0.007340
    24  H    0.460702  -0.060267   0.012560  -0.005211  -0.007340   0.517433
    25  H   -0.059104   0.457173  -0.059084   0.012183  -0.000060  -0.006956
    26  H    0.011904  -0.059074   0.457615  -0.061488   0.000027  -0.000063
    27  H   -0.003871   0.010077  -0.043631   0.455192  -0.000048   0.000024
    28  C   -0.000570   0.001551  -0.003218   0.009429   0.005841  -0.000182
    29  C   -0.000098   0.000401   0.000001  -0.003096  -0.001864   0.000043
    30  C    0.001590   0.000054   0.000189   0.000225   0.000021  -0.000019
    31  C   -0.000018  -0.000127   0.000085  -0.000010  -0.000184   0.000018
    32  C    0.000111   0.000007  -0.000053   0.000076   0.000517  -0.000016
    33  C   -0.000580  -0.000029   0.000291  -0.001495  -0.001196   0.000111
    34  H   -0.000117  -0.000021   0.001270  -0.003865  -0.000171   0.000022
    35  H    0.000005  -0.000002  -0.000001   0.000028   0.000013  -0.000001
    36  H   -0.000001  -0.000002   0.000000   0.000000  -0.000002   0.000000
    37  H    0.000001   0.000000  -0.000000   0.000000  -0.000002  -0.000000
    38  H   -0.000039  -0.000000   0.000004  -0.000037   0.000184   0.000006
              25         26         27         28         29         30
     1  C    0.000058  -0.000493   0.004925  -0.207843  -0.008033  -0.007993
     2  C    0.000002  -0.000010  -0.000151   0.275625  -0.055280   0.009315
     3  O    0.000000  -0.000000  -0.000024  -0.132243  -0.003182  -0.000549
     4  C    0.000000   0.000006  -0.001481   0.036864  -0.000211   0.000208
     5  C    0.000000   0.000000   0.000002   0.000182  -0.000006   0.000000
     6  H    0.000000   0.000000  -0.000000   0.000011  -0.000001   0.000000
     7  H    0.000000   0.000000   0.000000   0.000001   0.000000  -0.000000
     8  H   -0.000000  -0.000000   0.000000  -0.000010   0.000000  -0.000000
     9  N   -0.000000  -0.000001   0.000015  -0.002229   0.000154   0.000000
    10  H   -0.000000  -0.000000   0.000008  -0.000305   0.000143  -0.000009
    11  H    0.000000   0.000000   0.000000   0.000069  -0.000014   0.000001
    12  C   -0.000002   0.000029  -0.000727  -0.000508   0.000262   0.000016
    13  H    0.000000  -0.000002  -0.001317  -0.000087   0.000022   0.000002
    14  H    0.000001   0.000020  -0.001556  -0.000281   0.000023  -0.000002
    15  H   -0.000000  -0.000002   0.000330   0.000056  -0.000004  -0.000000
    16  H    0.000000  -0.000000  -0.000231   0.000999   0.000118   0.000024
    17  C   -0.004096   0.014748  -0.072504  -0.041316   0.016050   0.000908
    18  C    0.011722  -0.004278   0.011310   0.027099  -0.010648   0.000822
    19  C   -0.059104   0.011904  -0.003871  -0.000570  -0.000098   0.001590
    20  C    0.457173  -0.059074   0.010077   0.001551   0.000401   0.000054
    21  C   -0.059084   0.457615  -0.043631  -0.003218   0.000001   0.000189
    22  C    0.012183  -0.061488   0.455192   0.009429  -0.003096   0.000225
    23  H   -0.000060   0.000027  -0.000048   0.005841  -0.001864   0.000021
    24  H   -0.006956  -0.000063   0.000024  -0.000182   0.000043  -0.000019
    25  H    0.514820  -0.006882  -0.000076   0.000008  -0.000001  -0.000001
    26  H   -0.006882   0.517033  -0.006835   0.000017  -0.000037  -0.000010
    27  H   -0.000076  -0.006835   0.505023   0.000406  -0.000251  -0.000044
    28  C    0.000008   0.000017   0.000406   5.617520   0.324550   0.045707
    29  C   -0.000001  -0.000037  -0.000251   0.324550   5.126709   0.398894
    30  C   -0.000001  -0.000010  -0.000044   0.045707   0.398894   5.038676
    31  C   -0.000002  -0.000000   0.000007  -0.135511   0.049972   0.382953
    32  C    0.000001   0.000000  -0.000006   0.079240  -0.093130   0.041011
    33  C   -0.000001   0.000000   0.000068   0.101324   0.077192  -0.110031
    34  H   -0.000006  -0.000024   0.000774  -0.065705   0.445644  -0.047669
    35  H   -0.000000   0.000002  -0.000001   0.014774  -0.061038   0.457723
    36  H   -0.000000   0.000000  -0.000000  -0.004385   0.011848  -0.057718
    37  H    0.000000  -0.000000  -0.000000   0.017378  -0.005230   0.012415
    38  H   -0.000000   0.000000   0.000002  -0.097902   0.014882  -0.005655
              31         32         33         34         35         36
     1  C    0.002548  -0.006056   0.070471   0.012874  -0.000038   0.000006
     2  C   -0.005238   0.005384  -0.141541  -0.004866  -0.000314   0.000063
     3  O    0.000641  -0.001733   0.048187  -0.000219   0.000010   0.000000
     4  C   -0.000068   0.000173  -0.008172  -0.000183  -0.000004   0.000000
     5  C   -0.000000   0.000000  -0.000053  -0.000002   0.000000  -0.000000
     6  H   -0.000000   0.000000  -0.000004  -0.000000   0.000000  -0.000000
     7  H   -0.000000   0.000000  -0.000000   0.000000  -0.000000  -0.000000
     8  H    0.000000  -0.000000   0.000003   0.000000  -0.000000   0.000000
     9  N    0.000001  -0.000006   0.000462   0.000031  -0.000000   0.000000
[...]
 0557,0.00001520,-0.00000305,0.00001677,0.00001379,-0.00000871,0.000028
 97,-0.00000792,-0.00004208,-0.00000788,0.00010677,0.01160303,0.0091236
 3,-0.01060765,-0.12659651,-0.07709524,0.09326554,-0.01010106,-0.018932
 48,0.02137856,-0.00523011,0.00173406,0.00012530,-0.00075586,0.00049585
 ,-0.00052965,-0.00105487,0.00275986,-0.00177586,0.13238741,-0.00068455
 ,0.00028234,-0.00007806,-0.00282083,-0.00159134,-0.00184086,0.00116102
 ,-0.00069920,0.00028539,0.00079162,-0.00028079,0.00022104,0.00004738,0
 .00002889,-0.00009623,-0.00000197,0.00000027,0.00000986,-0.00000253,-0
 .00000363,0.00000184,-0.00004390,0.00002139,0.00000293,-0.00025803,0.0
 0015720,-0.00019537,-0.00004851,-0.00004655,-0.00001787,0.00001032,0.0
 0000457,0.00000832,-0.00002547,0.00000981,-0.00001914,-0.00000693,0.00
 000072,0.00000387,-0.00002098,0.00000198,-0.00000277,-0.00001295,-0.00
 001861,-0.00001773,-0.00004416,0.00000393,-0.00002938,-0.00068884,0.00
 019127,-0.00060968,0.00001676,0.00030051,0.00036701,0.00010372,-0.0002
 2389,0.00005639,0.00008502,0.00005598,-0.00014319,-0.00006282,0.000113
 03,0.00018323,-0.00041356,-0.00044420,-0.00028446,-0.00004293,-0.00000
 485,-0.00000734,-0.00000941,-0.00001186,-0.00000097,-0.00000746,0.0000
 0534,0.00000056,-0.00000764,0.00000362,-0.00000341,-0.00003018,0.00000
 423,0.00006330,-0.00989492,-0.00778814,0.01272158,-0.07790036,-0.14232
 480,0.11687025,0.00336527,0.00584167,-0.00191314,0.00143651,0.00435909
 ,0.00307448,0.00032305,-0.00036403,-0.00065511,0.00344617,0.00153768,0
 .00480814,0.08349923,0.14353311,-0.00065129,0.00032268,0.00029909,-0.0
 0022881,-0.00234780,-0.00184907,0.00059429,-0.00034803,0.00038160,-0.0
 0026659,-0.00012266,0.00002666,-0.00003435,-0.00000265,0.00003559,0.00
 000163,-0.00000128,-0.00000527,0.00000407,0.00000073,-0.00000157,0.000
 02029,-0.00001203,0.00000187,0.00013799,-0.00006949,0.00013308,-0.0000
 0974,0.00000093,-0.00002727,-0.00000190,0.00000410,-0.00001390,-0.0000
 2239,0.00003524,-0.00001503,0.00000581,0.00001265,0.00000348,-0.000009
 95,-0.00001052,-0.00001054,0.00000361,-0.00002056,-0.00000407,0.000030
 74,-0.00001456,0.00001253,-0.00023444,0.00009678,-0.00013085,0.0004413
 6,-0.00004525,-0.00035057,-0.00003808,0.00019192,-0.00002029,-0.000133
 19,0.00000811,0.00024255,0.00018782,-0.00028336,-0.00021357,0.00014491
 ,0.00002787,0.00041144,-0.00004087,-0.00002643,0.00003103,-0.00001871,
 0.00001600,0.00002560,-0.00000964,0.00002130,0.00001534,-0.00000875,0.
 00003338,-0.00001678,-0.00005255,-0.00001445,-0.00003046,0.01095909,0.
 00955718,-0.00748521,0.09155618,0.11668639,-0.17171829,-0.00029197,0.0
 0159373,0.00248269,0.00059124,0.00277872,0.00500202,-0.00092777,-0.000
 45450,-0.00040979,-0.00179605,0.00532642,0.00218227,-0.10020976,-0.130
 33007,0.17385173,-0.00060839,-0.00011067,0.00024096,0.00122675,0.00084
 430,-0.00112234,-0.00089211,0.00053070,0.00021972,0.00044673,-0.000254
 88,0.00017216,0.00004934,0.00000162,-0.00006411,-0.00000118,0.00000119
 ,0.00000933,-0.00000785,-0.00000072,0.00000286,-0.00003302,0.00001825,
 -0.00000033,-0.00017930,0.00007844,-0.00016426,0.00002573,-0.00001225,
 0.00004523,-0.00000532,0.00000665,0.00000505,-0.00003627,0.00002248,-0
 .00000116,-0.00000809,-0.00000761,-0.00000138,-0.00000553,-0.00000707,
 -0.00000277,-0.00002273,-0.00001162,-0.00000683,-0.00000799,0.00001843
 ,-0.00004459,-0.00003384,0.00012344,0.00002211,0.00000589,-0.00003659,
 -0.00001026,-0.00000271,0.00002014,-0.00000363,0.00001560,-0.00002456,
 0.00000308,0.00000306,-0.00000200,0.00000662,0.00000317,-0.00002026,-0
 .00003001,0.00000496,0.00000102,0.00001779,0.00000260,-0.00000613,-0.0
 0000676,0.00000116,-0.00000561,-0.00000135,0.00000054,-0.00000957,0.00
 000172,-0.00000058,0.00000597,-0.00000074,-0.00570929,0.00013713,0.001
 52446,-0.01045858,0.02112897,-0.01937077,-0.12948528,0.09259787,-0.079
 22990,0.01169805,-0.01137647,0.01022011,-0.00070931,-0.00151092,0.0029
 4903,-0.00080791,-0.00065190,0.00061224,0.00110511,-0.00067501,-0.0001
 6531,0.13324229,0.00023506,0.00003359,-0.00008257,-0.00054503,0.000002
 72,0.00019109,0.00004674,-0.00006260,-0.00001352,-0.00020939,0.0001017
 6,-0.00007329,-0.00002137,-0.00000077,0.00003054,0.00000044,-0.0000007
 7,-0.00000435,0.00000342,0.00000047,-0.00000109,0.00001522,-0.00000814
 ,-0.00000009,0.00008593,-0.00003725,0.00007360,-0.00000969,0.00000826,
 -0.00001703,0.00000237,-0.00000328,-0.00000091,0.00001326,-0.00000914,
 -0.00000008,0.00000354,0.00000330,0.00000097,0.00000228,0.00000285,0.0
 0000186,0.00000946,0.00000461,0.00000401,0.00000568,-0.00000986,0.0000
 1626,-0.00000945,-0.00004665,-0.00003010,-0.00000043,0.00004390,0.0000
 2886,0.00001930,-0.00003530,0.00000640,0.00000262,0.00002167,-0.000022
 37,-0.00000772,0.00001817,0.00001573,0.00000499,-0.00000827,0.00001105
 ,-0.00000753,-0.00000335,-0.00001152,-0.00000174,0.00000211,0.00000339
 ,-0.00000102,0.00000305,-0.00000021,-0.00000088,0.00000421,-0.00000075
 ,0.00000191,-0.00000307,-0.00000013,0.00075309,0.00467759,0.00287186,-
 0.00072714,0.00229527,0.00158893,0.09264567,-0.16687985,0.11609504,0.0
 1063562,-0.00713301,0.00910454,-0.00204354,0.00277007,0.00532221,-0.00
 039655,-0.00041620,-0.00056532,-0.00012983,-0.00177040,-0.00258223,-0.
 10024979,0.16907707,-0.00018443,-0.00002965,-0.00001212,0.00041979,-0.
 00001934,0.00023206,-0.00024191,0.00002932,-0.00007347,0.00010977,-0.0
 0006091,0.00003992,0.00001290,0.00000049,-0.00001748,-0.00000013,0.000
 00051,0.00000248,-0.00000207,-0.00000028,0.00000077,-0.00000883,0.0000
 0480,0.,-0.00004829,0.00001909,-0.00004194,0.00000839,-0.00000317,0.00
 001332,-0.00000112,0.00000137,0.00000126,-0.00001164,0.00000419,0.0000
 0113,-0.00000217,-0.00000254,-0.00000054,-0.00000065,-0.00000076,0.000
 00038,-0.00000579,-0.00000182,-0.00000045,-0.00000426,0.00000388,-0.00
 001132,-0.00004729,0.00000720,-0.00000698,-0.00001821,0.00000244,0.000
 01010,0.00001128,-0.00000622,0.00000478,0.00000862,-0.00000784,-0.0000
 0691,-0.00001454,0.00000995,0.00000295,-0.00001125,-0.00000806,-0.0000
 2927,0.00000380,0.00000003,0.00000331,-0.00000067,-0.00000165,-0.00000
 423,0.00000030,-0.00000293,-0.00000166,0.00000002,-0.00000360,0.000001
 26,0.00000516,0.00000233,0.00000011,0.00139114,0.00281868,0.00454758,0
 .00300044,-0.00193270,0.00526046,-0.07920100,0.11623428,-0.14442736,-0
 .01227287,0.01250169,-0.00721968,0.00328563,0.00525425,0.00163259,0.00
 078544,-0.00062561,-0.00053222,-0.00063804,-0.00241201,-0.00177294,0.0
 8471572,-0.12932843,0.14486370,-0.00035789,-0.00004985,0.00006535,0.00
 043290,-0.00002933,-0.00014936,-0.00021024,0.00002316,0.00006930,0.000
 27797,-0.00014066,0.00009583,0.00002937,0.00000174,-0.00004094,-0.0000
 0061,0.00000093,0.00000580,-0.00000448,-0.00000074,0.00000163,-0.00002
 064,0.00001119,0.00000003,-0.00011544,0.00005193,-0.00010059,0.0000126
 5,-0.00001077,0.00002332,-0.00000210,0.00000377,0.00000248,-0.00001978
 ,0.00001009,-0.00000054,-0.00000496,-0.00000443,-0.00000101,-0.0000030
 3,-0.00000320,-0.00000119,-0.00001300,-0.00000556,-0.00000391,-0.00000
 748,0.00001145,-0.00002238,-0.00002354,0.00005670,0.00001147,-0.000015
 46,-0.00002070,-0.00000107,-0.00000488,0.00001541,-0.00000007,0.000011
 22,-0.00001659,0.00000246,-0.00000397,0.00000217,0.00000258,-0.0000083
 4,-0.00000316,-0.00002939,0.00000702,0.00000399,0.00001238,0.00000095,
 -0.00000417,-0.00000646,0.00000106,-0.00000500,-0.00000119,0.00000061,
 -0.00000652,0.00000173,0.00000262,0.00000412,-0.00000027,0.00043083,-0
 .00009204,-0.00015341,0.00064329,-0.00145699,0.00276807,-0.01055043,0.
 00345035,-0.00098267,-0.33779281,0.02574903,0.02686316,-0.01071637,-0.
 00101276,0.00356346,0.00064158,0.00273138,-0.00154883,-0.00062948,0.00
 016745,-0.00006719,0.00073692,-0.00058846,-0.00027700,0.35717165,-0.00
 017218,0.00003564,0.00004932,-0.00019090,-0.00062675,-0.00063671,0.000
 21640,0.00001826,0.00002303,0.00013895,-0.00005804,0.00006111,0.000006
 94,0.00000501,-0.00001630,-0.00000034,-0.00000011,0.00000156,-0.000000
 20,-0.00000061,0.00000036,-0.00000737,0.00000345,0.00000050,-0.0000395
 6,0.00002666,-0.00003214,-0.00001105,-0.00000920,-0.00000512,0.0000016
 7,0.00000120,0.00000070,-0.00001351,0.00000940,-0.00001017,0.00000116,
 0.00000103,-0.00000074,-0.00000160,-0.00000078,-0.00000053,-0.00000522
 ,-0.00000436,-0.00000294,-0.00000689,0.00000091,-0.00000029,0.00001584
 ,0.00004814,0.00001075,0.00000880,-0.00000145,0.00000607,0.00000274,0.
 00000914,-0.00000731,0.00000178,0.00000285,0.00000838,-0.00000121,-0.0
 0000330,-0.00000036,0.00000872,0.00000665,0.00000723,-0.00000204,0.000
 00159,-0.00000162,-0.00000194,-0.00000146,-0.00000210,-0.00000100,-0.0
 0000150,-0.00000096,-0.00000086,-0.00000097,-0.00000002,-0.00000079,0.
 00000173,-0.00000163,-0.00014290,-0.00098799,-0.00006255,-0.00113505,0
 .00196106,0.00599658,-0.01860310,0.00567961,0.00131484,0.02571523,-0.0
 5157520,0.00852350,0.02110731,0.00270540,-0.00264418,0.00236895,0.0011
 8323,0.00607720,-0.00085226,0.00005006,0.00006231,0.00000696,-0.001610
 19,-0.00261362,-0.02848762,0.04469850,-0.00017168,0.00002326,0.0000705
 3,-0.00024023,-0.00054786,-0.00050118,0.00017966,-0.00017997,0.0000965
 5,0.00006585,-0.00004887,0.00004509,0.00000248,0.00000196,-0.00000825,
 -0.00000001,-0.00000002,0.00000082,-0.00000018,-0.00000028,0.00000010,
 -0.00000349,0.00000148,0.00000048,-0.00001671,0.00001047,-0.00001100,-
 0.00000502,-0.00000604,-0.00000247,0.00000026,0.00000125,-0.00000131,-
 0.00001081,0.00000727,-0.00000965,0.00000090,0.00000174,0.,-0.00000289
 ,-0.00000169,-0.00000130,-0.00000336,-0.00000459,-0.00000221,0.0000005
 6,-0.00000071,0.00000122,0.00002231,0.00005097,0.00000442,0.00003616,0
 .00000156,-0.00002141,0.00000387,0.00001672,-0.00000473,-0.00000997,0.
 00000194,0.00002205,0.00001026,-0.00002310,-0.00001196,0.00002681,0.00
 000745,0.00003321,-0.00000339,-0.00000045,0.00000315,-0.00000313,-0.00
 000024,0.00000020,-0.00000122,0.00000075,0.00000088,-0.00000086,0.0000
 0201,-0.00000141,-0.00000759,-0.00000115,0.00000076,-0.00013829,0.0004
 0908,-0.00133926,0.00227145,0.00599912,0.00113026,0.02129681,-0.002649
 80,0.00262760,0.02684490,0.00863785,-0.05241388,-0.01864101,0.00117997
 ,0.00581746,-0.00108333,0.00586220,0.00191009,0.00102188,-0.00015426,-
 0.00000502,-0.00085348,-0.00253216,-0.00143539,-0.02970265,-0.01348069
 ,0.04539792,-0.00086256,0.00003842,0.00007452,0.00079509,-0.00126180,0
 .00086366,-0.00021294,0.00029228,-0.00005611,0.00035796,-0.00030759,0.
 00010413,0.00004942,0.00000161,-0.00006878,-0.00000059,0.00000173,0.00
 001028,-0.00000766,-0.00000100,0.00000276,-0.00003497,0.00001871,-0.00
 000003,-0.00019524,0.00007984,-0.00016851,0.00002437,-0.00001810,0.000
 04540,-0.00000595,0.00000689,0.00000289,-0.00003755,0.00002441,0.00002
 526,-0.00001412,-0.00001134,-0.00000018,-0.00000264,-0.00000596,-0.000
 00455,-0.00002418,-0.00001192,-0.00000260,-0.00001062,0.00002787,-0.00
 004777,-0.00005672,0.00011425,0.00004169,-0.00000181,-0.00005323,-0.00
 002097,-0.00000709,0.00002451,-0.00000031,0.00000953,-0.00003288,0.000
 00564,0.00000128,-0.00000897,-0.00000501,-0.00000219,-0.00002367,-0.00
 003348,0.00000641,0.00000605,0.00001486,0.00000280,-0.00000605,-0.0000
 0784,0.00000222,-0.00000513,-0.00000084,0.00000165,-0.00000918,0.00000
 186,0.00000021,0.00000556,0.00000050,-0.00549771,0.00213798,0.00073641
 ,-0.00085785,0.00060611,-0.00060821,-0.00070894,0.00298889,-0.00151766
 ,0.01168767,0.01014857,-0.01166443,-0.12742887,-0.07636791,0.09320494,
 -0.01015661,-0.01899008,0.02168452,0.00007551,-0.00020348,-0.00002996,
 0.00038795,0.00050163,-0.00056562,0.00073780,-0.00087212,0.00000135,0.
 13089258,-0.00004186,-0.00000376,0.00001654,0.00031566,0.00025450,-0.0
 0004562,-0.00004464,-0.00002790,-0.00003160,0.00011741,-0.00005603,0.0
 0006154,0.00001017,0.00000031,-0.00001461,-0.00000024,0.00000039,0.000
 00195,-0.00000175,-0.00000022,0.00000070,-0.00000751,0.00000416,-0.000
 00003,-0.00004122,0.00002067,-0.00004173,0.00000689,-0.00000216,0.0000
 0859,-0.00000071,0.00000152,0.00000081,-0.00000354,0.00000533,-0.00000
 174,-0.00000145,-0.00000214,-0.00000167,-0.00000011,-0.00000364,-0.000
 00085,-0.00000347,-0.00000174,-0.00000362,-0.00000522,0.00000148,-0.00
 001006,0.00000178,0.00000162,-0.00001121,-0.00001730,-0.00001634,-0.00
 001765,-0.00000255,0.00001157,0.00000652,0.00001055,-0.00001181,0.0000
 0052,-0.00000706,0.00000659,0.00000007,-0.00001694,-0.00001470,-0.0000
 1615,0.00000052,0.00000151,0.00000624,0.,-0.00000190,-0.00000349,0.000
 00019,-0.00000231,-0.00000048,0.00000020,-0.00000255,0.00000103,0.0000
 0365,0.00000168,0.00000024,0.00159136,0.00455684,0.00277581,0.00054272
 ,-0.00060713,-0.00050035,0.00348290,0.00183615,0.00527865,-0.01200689,
 -0.00702132,0.01286242,-0.07632046,-0.14011478,0.11648225,0.00288397,0
 .00528856,-0.00212340,-0.00016057,-0.00056612,-0.00057704,-0.00056550,
 -0.00046397,0.00068190,-0.00028389,-0.00153980,-0.00264081,0.08139076,
 0.14019547,0.00035380,0.00002685,-0.00011675,-0.00063036,0.00019962,0.
 00007739,0.00031343,-0.00011810,-0.00004840,-0.00019355,0.00011196,-0.
 00005167,-0.00002362,0.00000008,0.00003242,0.00000033,-0.00000084,-0.0
 0000481,0.00000394,0.00000035,-0.00000125,0.00001623,-0.00000853,-0.00
 000004,0.00009019,-0.00003234,0.00007047,-0.00001351,0.00000854,-0.000
 02374,0.00000333,-0.00000324,-0.00000071,0.00002114,-0.00001013,0.0000
 0177,0.00000345,0.00000275,-0.00000004,0.00000337,0.00000118,0.0000009
 0,0.00001197,0.00000582,0.00000120,-0.00000034,-0.00001217,0.00001523,
 0.00002731,-0.00006440,-0.00001895,-0.00001086,0.00001218,-0.00000337,
 0.00000615,-0.00000752,0.00000477,0.00000417,0.00001084,-0.00000779,-0
 .00000731,0.00001409,0.00000592,-0.00001681,-0.00001132,0.00000931,-0.
 00000817,-0.00000181,-0.00001175,-0.00000129,0.00000268,0.00000305,-0.
 00000192,0.00000235,-0.00000013,-0.00000065,0.00000412,-0.00000056,0.0
 0000243,-0.00000277,0.,0.00102629,0.00284583,0.00457189,-0.00059694,-0
 .00059938,-0.00023196,-0.00193948,0.00525547,0.00264638,0.01057528,0.0
 0889042,-0.00728421,0.09322021,0.11643574,-0.17322828,-0.00065213,0.00
 181383,0.00202738,0.00001189,-0.00054881,-0.00061118,0.00049479,0.0004
 5737,-0.00046444,-0.00057429,-0.00252141,-0.00151788,-0.10120895,-0.12
 968004,0.17595168,0.00049377,0.00024953,-0.00000284,-0.00028554,-0.001
 05457,0.00022254,-0.00028729,-0.00007673,-0.00020647,-0.00025756,0.000
 13190,-0.00002914,-0.00003822,0.00000662,0.00003859,0.00000121,-0.0000
 0174,-0.00000720,0.00000770,0.,-0.00000223,0.00002187,-0.00001286,0.00
 000062,0.00012681,-0.00004337,0.00010746,-0.00002857,0.00000739,-0.000
 04407,0.00000754,-0.00000522,-0.00000311,0.00000075,0.00000457,-0.0000
 2235,0.00001310,0.00000839,-0.00000075,0.00000492,0.00000469,0.0000027
 4,0.00000993,0.00000185,0.00000278,-0.00000935,-0.00002795,0.00004050,
 0.00007918,-0.00003757,-0.00002128,-0.00001498,0.00003906,0.00000862,0
 .00000493,-0.00002427,0.00000169,-0.00000067,0.00002529,-0.00001228,-0
 .00000583,0.00001640,0.00001507,-0.00001469,0.00000885,0.00000639,-0.0
 0000023,0.00001817,-0.00000062,-0.00000189,0.00000294,0.00000437,-0.00
 000115,0.00000230,-0.00000002,-0.00000162,0.00000502,-0.00000103,0.000
 00490,-0.00000431,-0.00000124,0.01139552,-0.00973939,0.00855619,-0.001
 02612,-0.00147782,0.00294490,-0.00071238,-0.00051940,0.00046280,-0.005
 06621,0.00044962,0.00213317,-0.01006533,0.02114080,-0.01839381,-0.1294
 6982,0.09423520,-0.07833461,0.00043492,-0.00054610,0.00057025,0.000059
 43,-0.00003866,-0.00020063,-0.00063353,0.00094824,-0.00088620,0.001094
 36,-0.00082583,-0.00030952,0.13416014,-0.00053472,0.00014838,0.0001959
 3,0.00181958,-0.00389962,-0.00217553,0.00056368,0.00131674,-0.00071905
 ,0.00016209,-0.00019727,0.00013575,0.00000556,0.00000810,-0.00001987,0
 .00000072,-0.00000063,0.00000153,0.00000139,-0.00000115,0.00000073,-0.
 00000927,0.00000453,0.00000047,-0.00004399,0.00003357,-0.00005159,-0.0
 0002833,-0.00001263,-0.00000641,0.00000002,-0.00000095,0.00000167,-0.0
 0004951,0.00004206,-0.00000665,0.00000226,0.00000068,-0.00000127,0.000
 00317,0.00000025,-0.00000206,-0.00001733,-0.00001399,0.00000011,-0.000
 01253,0.00002143,0.00000445,-0.00000960,0.00010819,-0.00002712,0.00001
 264,0.00000423,0.00005092,0.00001260,0.00000041,-0.00001057,0.00000653
 ,-0.00000086,-0.00001775,-0.00000080,0.00002412,0.00001290,-0.00003153
 ,-0.00000743,-0.00002644,-0.00000265,0.00001600,-0.00001809,0.00000173
 ,-0.00000243,-0.00000148,-0.00000143,-0.00000038,-0.00000288,0.0000032
 2,-0.00000156,0.00000113,0.00000410,0.00000246,-0.00000348,0.00872606,
 -0.00771571,0.01043793,-0.00185034,0.00189914,0.00499517,-0.00070711,-
 0.00025315,-0.00051837,0.00063252,0.00470215,0.00270345,-0.00069733,0.
 00263640,0.00152225,0.09463719,-0.17220569,0.11417534,0.00057498,-0.00
 036828,0.00048645,-0.00000441,-0.00056863,-0.00051524,-0.00007245,-0.0
 0002780,0.00005564,-0.00022566,-0.00172807,-0.00247926,-0.10287104,0.1
 7603736,-0.00038221,-0.00021904,0.00023215,-0.00157136,-0.00056439,-0.
 00174445,0.00020678,-0.00181017,0.00082503,0.00020909,-0.00016995,0.00
 016021,0.00002062,-0.00000321,-0.00002093,-0.00000017,0.00000034,0.000
 00305,-0.00000390,-0.00000019,0.00000134,-0.00001267,0.00000786,-0.000
 00016,-0.00005385,0.00003233,-0.00006670,0.00002821,-0.00000954,0.0000
 2273,-0.00000474,0.00000328,0.00000294,-0.00003079,0.00000859,-0.00003
 413,-0.00000059,0.00000067,-0.00000037,-0.00001003,-0.00000939,-0.0000
 0208,-0.00001448,-0.00001108,-0.00000496,0.00002517,-0.00000006,-0.000
 00953,-0.00008670,0.00008332,-0.00003469,0.00005526,0.00001434,0.00000
 326,0.00002963,-0.00002328,0.00000232,-0.00000295,0.00000162,-0.000025
 95,0.00000343,0.00001318,0.00001772,-0.00000317,-0.00004381,-0.0000018
 0,-0.00001031,0.00002969,-0.00001235,0.00000008,-0.00000204,0.00000035
 ,-0.00000209,0.00000113,-0.00000103,0.00000166,-0.00000072,-0.00000062
 ,-0.00000219,0.00000112,0.00000039,-0.01219288,0.01358933,-0.00675282,
 0.00341745,0.00501180,0.00143720,0.00053120,-0.00055782,-0.00054092,0.
 00161822,0.00304501,0.00450905,0.00322076,-0.00229582,0.00570846,-0.07
 697655,0.11449724,-0.13831867,-0.00055019,0.00068165,-0.00044692,-0.00
 018299,-0.00055753,-0.00055973,0.00017535,-0.00010208,0.00012554,-0.00
 080886,-0.00246365,-0.00179187,0.08336076,-0.12817872,0.13731896\\0.00
 000004,-0.00000039,0.00000013,-0.00000017,-0.00000031,0.00000092,-0.00
 000021,-0.00000033,0.00000169,-0.00000020,-0.00000064,0.00000020,-0.00
 000022,0.00000026,0.00000101,-0.00000021,-0.00000046,0.00000139,-0.000
 00003,0.00000003,0.00000046,-0.00000012,0.00000069,0.00000145,0.000000
 08,0.00000028,0.00000077,-0.00000019,0.00000028,0.00000118,0.00000004,
 0.00000077,0.00000029,-0.00000003,-0.00000098,-0.00000055,-0.00000003,
 -0.00000162,-0.00000079,0.00000006,-0.00000051,-0.00000106,-0.00000007
 ,-0.00000106,-0.00000035,-0.00000019,-0.00000107,0.00000084,0.00000002
 ,-0.00000007,-0.00000068,0.00000014,0.00000082,-0.00000080,0.00000032,
 0.00000113,-0.00000158,0.00000034,0.00000055,-0.00000230,0.00000024,-0
 .00000032,-0.00000223,0.00000012,-0.00000067,-0.00000141,0.00000016,0.
 00000126,-0.00000025,0.00000037,0.00000180,-0.00000163,0.00000043,0.00
 000079,-0.00000291,0.00000026,-0.00000077,-0.00000276,0.00000004,-0.00
 000133,-0.00000137,-0.00000005,-0.00000001,0.00000090,-0.00000009,-0.0
 0000052,0.00000038,-0.00000010,-0.00000034,0.00000040,-0.00000008,0.00
 000031,0.00000095,-0.00000010,0.00000079,0.00000150,-0.00000006,0.0000
 0062,0.00000148,-0.00000010,-0.00000103,-0.00000007,-0.00000007,-0.000
 00070,-0.00000003,-0.00000007,0.00000047,0.00000095,-0.00000011,0.0000
 0128,0.00000192,-0.00000016,0.00000098,0.00000194\\\@


      LET US REMEMBER, PLEASE, THAT THE SEARCH FOR THE CONSTITUTION
      OF THE WORLD IS ONE OF THE GREATEST AND NOBLEST PROBLEMS PRESENTED 
      BY NATURE.

                                                  -- GALILEO
 Job cpu time:       1 days 11 hours 11 minutes 24.5 seconds.
 Elapsed time:       0 days  2 hours 12 minutes  3.2 seconds.
 File lengths (MBytes):  RWF=   1684 Int=      0 D2E=      0 Chk=     57 Scr=      1
 Normal termination of Gaussian 16 at Sun Feb 14 17:51:07 2021.
