 Entering Gaussian System, Link 0=g16
 Initial command:
 /apps/gaussian/16/A.03/g16/l1.exe "/beegfs/scratch/user/q/tla25/Gau-49209.inp" -scrdir="/beegfs/scratch/user/q/tla25/"
 Entering Link 1 = /apps/gaussian/16/A.03/g16/l1.exe PID=     49210.
  
 Copyright (c) 1988,1990,1992,1993,1995,1998,2003,2009,2016,
            Gaussian, Inc.  All Rights Reserved.
  
 This is part of the Gaussian(R) 16 program.  It is based on
 the Gaussian(R) 09 system (copyright 2009, Gaussian, Inc.),
 the Gaussian(R) 03 system (copyright 2003, Gaussian, Inc.),
 the Gaussian(R) 98 system (copyright 1998, Gaussian, Inc.),
 the Gaussian(R) 94 system (copyright 1995, Gaussian, Inc.),
 the Gaussian 92(TM) system (copyright 1992, Gaussian, Inc.),
 the Gaussian 90(TM) system (copyright 1990, Gaussian, Inc.),
 the Gaussian 88(TM) system (copyright 1988, Gaussian, Inc.),
 the Gaussian 86(TM) system (copyright 1986, Carnegie Mellon
 University), and the Gaussian 82(TM) system (copyright 1983,
 Carnegie Mellon University). Gaussian is a federally registered
 trademark of Gaussian, Inc.
  
 This software contains proprietary and confidential information,
 including trade secrets, belonging to Gaussian, Inc.
  
 This software is provided under written license and may be
 used, copied, transmitted, or stored only in accord with that
 written license.
  
 The following legend is applicable only to US Government
 contracts under FAR:
  
                    RESTRICTED RIGHTS LEGEND
  
 Use, reproduction and disclosure by the US Government is
 subject to restrictions as set forth in subparagraphs (a)
 and (c) of the Commercial Computer Software - Restricted
 Rights clause in FAR 52.227-19.
  
 Gaussian, Inc.
 340 Quinnipiac St., Bldg. 40, Wallingford CT 06492
  
  
 ---------------------------------------------------------------
 Warning -- This program may not be used in any manner that
 competes with the business of Gaussian, Inc. or will provide
 assistance to any competitor of Gaussian, Inc.  The licensee
 of this program is prohibited from giving any competitor of
 Gaussian, Inc. access to this program.  By using this program,
 the user acknowledges that Gaussian, Inc. is engaged in the
 business of creating and licensing software in the field of
 computational chemistry and represents and warrants to the
 licensee that it is not a competitor of Gaussian, Inc. and that
 it will not use this program in any manner prohibited above.
 ---------------------------------------------------------------
  

 Cite this work as:
 Gaussian 16, Revision A.03,
 M. J. Frisch, G. W. Trucks, H. B. Schlegel, G. E. Scuseria, 
 M. A. Robb, J. R. Cheeseman, G. Scalmani, V. Barone, 
 G. A. Petersson, H. Nakatsuji, X. Li, M. Caricato, A. V. Marenich, 
 J. Bloino, B. G. Janesko, R. Gomperts, B. Mennucci, H. P. Hratchian, 
 J. V. Ortiz, A. F. Izmaylov, J. L. Sonnenberg, D. Williams-Young, 
 F. Ding, F. Lipparini, F. Egidi, J. Goings, B. Peng, A. Petrone, 
 T. Henderson, D. Ranasinghe, V. G. Zakrzewski, J. Gao, N. Rega, 
 G. Zheng, W. Liang, M. Hada, M. Ehara, K. Toyota, R. Fukuda, 
 J. Hasegawa, M. Ishida, T. Nakajima, Y. Honda, O. Kitao, H. Nakai, 
 T. Vreven, K. Throssell, J. A. Montgomery, Jr., J. E. Peralta, 
 F. Ogliaro, M. J. Bearpark, J. J. Heyd, E. N. Brothers, K. N. Kudin, 
 V. N. Staroverov, T. A. Keith, R. Kobayashi, J. Normand, 
 K. Raghavachari, A. P. Rendell, J. C. Burant, S. S. Iyengar, 
 J. Tomasi, M. Cossi, J. M. Millam, M. Klene, C. Adamo, R. Cammi, 
 J. W. Ochterski, R. L. Martin, K. Morokuma, O. Farkas, 
 J. B. Foresman, and D. J. Fox, Gaussian, Inc., Wallingford CT, 2016.
 
 ******************************************
 Gaussian 16:  ES64L-G16RevA.03 25-Dec-2016
                14-Feb-2021 
 ******************************************
 %nprocshared=16
 Will use up to   16 processors via shared memory.
 %mem=48GB
 ----------------------------------------------------------------------
 # wB97XD def2tzvp, opt=(ts, noeigen, calcfc, maxcycles=70, maxstep=5),
  freq=noraman, scrf=(iefpcm, solvent=water)
 ----------------------------------------------------------------------
 1/5=1,6=70,8=5,10=4,11=1,18=20,26=3,38=1/1,3;
 2/9=110,12=2,17=6,18=5,40=1/2;
 3/5=44,7=101,11=2,25=1,30=1,70=2201,71=2,72=1,74=-58,140=1/1,2,3;
 4//1;
 5/5=2,38=5,53=1/2;
 8/6=4,10=90,11=11/1;
 11/6=1,8=1,9=11,15=111,16=1/1,2,10;
 10/6=1,13=1/2;
 6/7=2,8=2,9=2,10=2,28=1/1;
 7/10=1,18=20,25=1/1,2,3,16;
 1/5=1,6=70,8=5,10=4,11=1,18=20,26=3/3(2);
 2/9=110/2;
 99//99;
 2/9=110/2;
 3/5=44,7=101,11=2,25=1,30=1,70=2205,71=1,72=1,74=-58/1,2,3;
 4/5=5,16=3,69=1/1;
 5/5=2,38=5,53=1/2;
 7//1,2,3,16;
 1/5=1,6=70,8=5,11=1,18=20,26=3/3(-5);
 2/9=110/2;
 6/7=2,8=2,9=2,10=2,19=2,28=1/1;
 99/9=1/99;
 ------------------------
 2_iteration/TS-412-2.out
 ------------------------
 Symbolic Z-matrix:
 Charge =  0 Multiplicity = 1
 C                    -1.19245   0.31006  -0.96502 
 C                    -1.8229   -0.58892  -0.07458 
 O                    -1.42814  -0.91581   1.04798 
 C                     0.05912   0.89489  -0.68729 
 C                    -1.2919    2.80767   0.90713 
 H                    -1.72283   3.01928   1.88591 
 H                    -0.91857   3.73267   0.47239 
 H                    -2.07012   2.39475   0.26135 
 N                    -0.21255   1.8357    0.98959 
 H                     0.62332   2.23128   1.39989 
 H                    -0.4889    1.01837   1.5293 
 C                     0.45165   2.02276  -1.61624 
 H                     0.78128   1.59499  -2.56499 
 H                    -0.39544   2.67885  -1.81299 
 H                     1.27346   2.61517  -1.2171 
 C                     1.23746   0.04438  -0.26723 
 C                     1.24239  -1.32288  -0.52952 
 C                     2.34378  -2.10745  -0.22425 
 C                     3.47295  -1.53769   0.3444 
 C                     3.49206  -0.17355   0.59357 
 C                     2.38885   0.60637   0.28394 
 H                     0.37156  -1.77176  -0.9867 
 H                     2.31883  -3.16912  -0.43606 
 H                     4.33396  -2.14897   0.58338 
 H                     4.37013   0.28947   1.02572 
 H                     2.44555   1.67114   0.47259 
 H                    -1.79994   0.73956  -1.74936 
 O                    -3.00913  -1.06479  -0.54856 
 C                    -3.7564   -1.88848   0.33162 
 H                    -3.21216  -2.80103   0.57896 
 H                    -4.0002   -1.36204   1.25569 
 H                    -4.67157  -2.1407   -0.19958 
 
 Add virtual bond connecting atoms N9         and C4         Dist= 3.67D+00.

 GradGradGradGradGradGradGradGradGradGradGradGradGradGradGradGradGradGrad
 Berny optimization.
 Initialization pass.
                           ----------------------------
                           !    Initial Parameters    !
                           ! (Angstroms and Degrees)  !
 --------------------------                            --------------------------
 ! Name  Definition              Value          Derivative Info.                !
 --------------------------------------------------------------------------------
 ! R1    R(1,2)                  1.4137         calculate D2E/DX2 analytically  !
 ! R2    R(1,4)                  1.4091         calculate D2E/DX2 analytically  !
 ! R3    R(1,27)                 1.0811         calculate D2E/DX2 analytically  !
 ! R4    R(2,3)                  1.234          calculate D2E/DX2 analytically  !
 ! R5    R(2,28)                 1.3632         calculate D2E/DX2 analytically  !
 ! R6    R(4,9)                  1.9419         calculate D2E/DX2 analytically  !
 ! R7    R(4,12)                 1.513          calculate D2E/DX2 analytically  !
 ! R8    R(4,16)                 1.5127         calculate D2E/DX2 analytically  !
 ! R9    R(5,6)                  1.0902         calculate D2E/DX2 analytically  !
 ! R10   R(5,7)                  1.0881         calculate D2E/DX2 analytically  !
 ! R11   R(5,8)                  1.0923         calculate D2E/DX2 analytically  !
 ! R12   R(5,9)                  1.4548         calculate D2E/DX2 analytically  !
 ! R13   R(9,10)                 1.0117         calculate D2E/DX2 analytically  !
 ! R14   R(9,11)                 1.0177         calculate D2E/DX2 analytically  !
 ! R15   R(12,13)                1.0917         calculate D2E/DX2 analytically  !
 ! R16   R(12,14)                1.0894         calculate D2E/DX2 analytically  !
 ! R17   R(12,15)                1.0889         calculate D2E/DX2 analytically  !
 ! R18   R(16,17)                1.3922         calculate D2E/DX2 analytically  !
 ! R19   R(16,21)                1.3947         calculate D2E/DX2 analytically  !
 ! R20   R(17,18)                1.3863         calculate D2E/DX2 analytically  !
 ! R21   R(17,22)                1.0811         calculate D2E/DX2 analytically  !
 ! R22   R(18,19)                1.3867         calculate D2E/DX2 analytically  !
 ! R23   R(18,23)                1.0829         calculate D2E/DX2 analytically  !
 ! R24   R(19,20)                1.3868         calculate D2E/DX2 analytically  !
 ! R25   R(19,24)                1.0826         calculate D2E/DX2 analytically  !
 ! R26   R(20,21)                1.3861         calculate D2E/DX2 analytically  !
 ! R27   R(20,25)                1.0827         calculate D2E/DX2 analytically  !
 ! R28   R(21,26)                1.0828         calculate D2E/DX2 analytically  !
 ! R29   R(28,29)                1.4183         calculate D2E/DX2 analytically  !
 ! R30   R(29,30)                1.0909         calculate D2E/DX2 analytically  !
 ! R31   R(29,31)                1.0911         calculate D2E/DX2 analytically  !
 ! R32   R(29,32)                1.0878         calculate D2E/DX2 analytically  !
 ! A1    A(2,1,4)              122.4038         calculate D2E/DX2 analytically  !
 ! A2    A(2,1,27)             117.3244         calculate D2E/DX2 analytically  !
 ! A3    A(4,1,27)             118.5039         calculate D2E/DX2 analytically  !
 ! A4    A(1,2,3)              126.7813         calculate D2E/DX2 analytically  !
 ! A5    A(1,2,28)             113.0202         calculate D2E/DX2 analytically  !
 ! A6    A(3,2,28)             120.1452         calculate D2E/DX2 analytically  !
 ! A7    A(1,4,9)              104.3012         calculate D2E/DX2 analytically  !
 ! A8    A(1,4,12)             114.7597         calculate D2E/DX2 analytically  !
 ! A9    A(1,4,16)             120.8806         calculate D2E/DX2 analytically  !
 ! A10   A(9,4,12)             101.8489         calculate D2E/DX2 analytically  !
 ! A11   A(9,4,16)              98.1394         calculate D2E/DX2 analytically  !
 ! A12   A(12,4,16)            112.8009         calculate D2E/DX2 analytically  !
 ! A13   A(6,5,7)              109.2276         calculate D2E/DX2 analytically  !
 ! A14   A(6,5,8)              108.817          calculate D2E/DX2 analytically  !
 ! A15   A(6,5,9)              111.8426         calculate D2E/DX2 analytically  !
 ! A16   A(7,5,8)              109.2437         calculate D2E/DX2 analytically  !
 ! A17   A(7,5,9)              109.6361         calculate D2E/DX2 analytically  !
 ! A18   A(8,5,9)              108.0306         calculate D2E/DX2 analytically  !
 ! A19   A(4,9,5)              112.2429         calculate D2E/DX2 analytically  !
 ! A20   A(4,9,10)             115.0917         calculate D2E/DX2 analytically  !
 ! A21   A(4,9,11)              96.1336         calculate D2E/DX2 analytically  !
 ! A22   A(5,9,10)             112.0076         calculate D2E/DX2 analytically  !
 ! A23   A(5,9,11)             111.4177         calculate D2E/DX2 analytically  !
 ! A24   A(10,9,11)            108.863          calculate D2E/DX2 analytically  !
 ! A25   A(4,12,13)            108.6526         calculate D2E/DX2 analytically  !
 ! A26   A(4,12,14)            110.9846         calculate D2E/DX2 analytically  !
 ! A27   A(4,12,15)            112.106          calculate D2E/DX2 analytically  !
 ! A28   A(13,12,14)           108.2899         calculate D2E/DX2 analytically  !
 ! A29   A(13,12,15)           107.69           calculate D2E/DX2 analytically  !
 ! A30   A(14,12,15)           108.9909         calculate D2E/DX2 analytically  !
 ! A31   A(4,16,17)            120.1729         calculate D2E/DX2 analytically  !
 ! A32   A(4,16,21)            121.7513         calculate D2E/DX2 analytically  !
 ! A33   A(17,16,21)           117.8555         calculate D2E/DX2 analytically  !
 ! A34   A(16,17,18)           121.1404         calculate D2E/DX2 analytically  !
 ! A35   A(16,17,22)           118.9844         calculate D2E/DX2 analytically  !
 ! A36   A(18,17,22)           119.8732         calculate D2E/DX2 analytically  !
 ! A37   A(17,18,19)           120.3112         calculate D2E/DX2 analytically  !
 ! A38   A(17,18,23)           119.57           calculate D2E/DX2 analytically  !
 ! A39   A(19,18,23)           120.1184         calculate D2E/DX2 analytically  !
 ! A40   A(18,19,20)           119.2773         calculate D2E/DX2 analytically  !
 ! A41   A(18,19,24)           120.4052         calculate D2E/DX2 analytically  !
 ! A42   A(20,19,24)           120.3153         calculate D2E/DX2 analytically  !
 ! A43   A(19,20,21)           120.1567         calculate D2E/DX2 analytically  !
 ! A44   A(19,20,25)           120.2358         calculate D2E/DX2 analytically  !
 ! A45   A(21,20,25)           119.6066         calculate D2E/DX2 analytically  !
 ! A46   A(16,21,20)           121.2385         calculate D2E/DX2 analytically  !
 ! A47   A(16,21,26)           120.5495         calculate D2E/DX2 analytically  !
 ! A48   A(20,21,26)           118.2095         calculate D2E/DX2 analytically  !
 ! A49   A(2,28,29)            116.4515         calculate D2E/DX2 analytically  !
 ! A50   A(28,29,30)           111.3247         calculate D2E/DX2 analytically  !
 ! A51   A(28,29,31)           111.2911         calculate D2E/DX2 analytically  !
 ! A52   A(28,29,32)           105.9541         calculate D2E/DX2 analytically  !
 ! A53   A(30,29,31)           108.8476         calculate D2E/DX2 analytically  !
 ! A54   A(30,29,32)           109.662          calculate D2E/DX2 analytically  !
 ! A55   A(31,29,32)           109.722          calculate D2E/DX2 analytically  !
 ! D1    D(4,1,2,3)              4.2595         calculate D2E/DX2 analytically  !
 ! D2    D(4,1,2,28)          -178.4173         calculate D2E/DX2 analytically  !
 ! D3    D(27,1,2,3)          -160.3543         calculate D2E/DX2 analytically  !
 ! D4    D(27,1,2,28)           16.969          calculate D2E/DX2 analytically  !
 ! D5    D(2,1,4,9)            -58.2434         calculate D2E/DX2 analytically  !
 ! D6    D(2,1,4,12)          -168.787          calculate D2E/DX2 analytically  !
 ! D7    D(2,1,4,16)            50.5825         calculate D2E/DX2 analytically  !
 ! D8    D(27,1,4,9)           106.1974         calculate D2E/DX2 analytically  !
 ! D9    D(27,1,4,12)           -4.3462         calculate D2E/DX2 analytically  !
 ! D10   D(27,1,4,16)         -144.9767         calculate D2E/DX2 analytically  !
 ! D11   D(1,2,28,29)         -175.0729         calculate D2E/DX2 analytically  !
 ! D12   D(3,2,28,29)            2.448          calculate D2E/DX2 analytically  !
 ! D13   D(1,4,9,5)            -57.1624         calculate D2E/DX2 analytically  !
 ! D14   D(1,4,9,10)           173.1542         calculate D2E/DX2 analytically  !
 ! D15   D(1,4,9,11)            58.9888         calculate D2E/DX2 analytically  !
 ! D16   D(12,4,9,5)            62.514          calculate D2E/DX2 analytically  !
 ! D17   D(12,4,9,10)          -67.1695         calculate D2E/DX2 analytically  !
 ! D18   D(12,4,9,11)          178.6652         calculate D2E/DX2 analytically  !
 ! D19   D(16,4,9,5)           177.9818         calculate D2E/DX2 analytically  !
 ! D20   D(16,4,9,10)           48.2983         calculate D2E/DX2 analytically  !
 ! D21   D(16,4,9,11)          -65.867          calculate D2E/DX2 analytically  !
 ! D22   D(1,4,12,13)          -76.5801         calculate D2E/DX2 analytically  !
 ! D23   D(1,4,12,14)           42.3815         calculate D2E/DX2 analytically  !
 ! D24   D(1,4,12,15)          164.5208         calculate D2E/DX2 analytically  !
 ! D25   D(9,4,12,13)          171.4134         calculate D2E/DX2 analytically  !
 ! D26   D(9,4,12,14)          -69.625          calculate D2E/DX2 analytically  !
 ! D27   D(9,4,12,15)           52.5143         calculate D2E/DX2 analytically  !
 ! D28   D(16,4,12,13)          67.2242         calculate D2E/DX2 analytically  !
 ! D29   D(16,4,12,14)        -173.8141         calculate D2E/DX2 analytically  !
 ! D30   D(16,4,12,15)         -51.6749         calculate D2E/DX2 analytically  !
 ! D31   D(1,4,16,17)           19.4644         calculate D2E/DX2 analytically  !
 ! D32   D(1,4,16,21)         -166.0449         calculate D2E/DX2 analytically  !
 ! D33   D(9,4,16,17)          131.568          calculate D2E/DX2 analytically  !
 ! D34   D(9,4,16,21)          -53.9413         calculate D2E/DX2 analytically  !
 ! D35   D(12,4,16,17)        -121.8656         calculate D2E/DX2 analytically  !
 ! D36   D(12,4,16,21)          52.6251         calculate D2E/DX2 analytically  !
 ! D37   D(6,5,9,4)            155.8272         calculate D2E/DX2 analytically  !
 ! D38   D(6,5,9,10)           -72.9136         calculate D2E/DX2 analytically  !
 ! D39   D(6,5,9,11)            49.3032         calculate D2E/DX2 analytically  !
 ! D40   D(7,5,9,4)            -82.8597         calculate D2E/DX2 analytically  !
 ! D41   D(7,5,9,10)            48.3995         calculate D2E/DX2 analytically  !
 ! D42   D(7,5,9,11)           170.6162         calculate D2E/DX2 analytically  !
 ! D43   D(8,5,9,4)             36.0971         calculate D2E/DX2 analytically  !
 ! D44   D(8,5,9,10)           167.3562         calculate D2E/DX2 analytically  !
 ! D45   D(8,5,9,11)           -70.427          calculate D2E/DX2 analytically  !
 ! D46   D(4,16,17,18)         176.1882         calculate D2E/DX2 analytically  !
 ! D47   D(4,16,17,22)          -3.3104         calculate D2E/DX2 analytically  !
 ! D48   D(21,16,17,18)          1.4864         calculate D2E/DX2 analytically  !
 ! D49   D(21,16,17,22)       -178.0123         calculate D2E/DX2 analytically  !
 ! D50   D(4,16,21,20)        -176.2241         calculate D2E/DX2 analytically  !
 ! D51   D(4,16,21,26)           3.1917         calculate D2E/DX2 analytically  !
 ! D52   D(17,16,21,20)         -1.6108         calculate D2E/DX2 analytically  !
 ! D53   D(17,16,21,26)        177.805          calculate D2E/DX2 analytically  !
 ! D54   D(16,17,18,19)         -0.4344         calculate D2E/DX2 analytically  !
 ! D55   D(16,17,18,23)        179.79           calculate D2E/DX2 analytically  !
 ! D56   D(22,17,18,19)        179.0599         calculate D2E/DX2 analytically  !
 ! D57   D(22,17,18,23)         -0.7158         calculate D2E/DX2 analytically  !
 ! D58   D(17,18,19,20)         -0.5392         calculate D2E/DX2 analytically  !
 ! D59   D(17,18,19,24)       -179.9974         calculate D2E/DX2 analytically  !
 ! D60   D(23,18,19,20)        179.2352         calculate D2E/DX2 analytically  !
 ! D61   D(23,18,19,24)         -0.223          calculate D2E/DX2 analytically  !
 ! D62   D(18,19,20,21)          0.4171         calculate D2E/DX2 analytically  !
 ! D63   D(18,19,20,25)       -179.2418         calculate D2E/DX2 analytically  !
 ! D64   D(24,19,20,21)        179.8758         calculate D2E/DX2 analytically  !
 ! D65   D(24,19,20,25)          0.2169         calculate D2E/DX2 analytically  !
 ! D66   D(19,20,21,16)          0.6806         calculate D2E/DX2 analytically  !
 ! D67   D(19,20,21,26)       -178.7485         calculate D2E/DX2 analytically  !
 ! D68   D(25,20,21,16)       -179.6584         calculate D2E/DX2 analytically  !
 ! D69   D(25,20,21,26)          0.9125         calculate D2E/DX2 analytically  !
 ! D70   D(2,28,29,30)         -62.6683         calculate D2E/DX2 analytically  !
 ! D71   D(2,28,29,31)          58.9549         calculate D2E/DX2 analytically  !
 ! D72   D(2,28,29,32)         178.1703         calculate D2E/DX2 analytically  !
 --------------------------------------------------------------------------------
 Trust Radius=5.00D-02 FncErr=1.00D-07 GrdErr=1.00D-06 EigMax=2.50D+02 EigMin=1.00D-04
 Number of steps in this run=     70 maximum allowed number of steps=    192.
 Search for a saddle point of order  1.
 GradGradGradGradGradGradGradGradGradGradGradGradGradGradGradGradGradGrad

                          Input orientation:                          
 ---------------------------------------------------------------------
 Center     Atomic      Atomic             Coordinates (Angstroms)
 Number     Number       Type             X           Y           Z
 ---------------------------------------------------------------------
      1          6           0       -1.192450    0.310060   -0.965020
      2          6           0       -1.822900   -0.588920   -0.074580
      3          8           0       -1.428140   -0.915810    1.047980
      4          6           0        0.059120    0.894890   -0.687290
      5          6           0       -1.291900    2.807670    0.907130
      6          1           0       -1.722830    3.019280    1.885910
      7          1           0       -0.918570    3.732670    0.472390
      8          1           0       -2.070120    2.394750    0.261350
      9          7           0       -0.212550    1.835700    0.989590
     10          1           0        0.623320    2.231280    1.399890
     11          1           0       -0.488900    1.018370    1.529300
     12          6           0        0.451650    2.022760   -1.616240
     13          1           0        0.781280    1.594990   -2.564990
     14          1           0       -0.395440    2.678850   -1.812990
     15          1           0        1.273460    2.615170   -1.217100
     16          6           0        1.237460    0.044380   -0.267230
     17          6           0        1.242390   -1.322880   -0.529520
     18          6           0        2.343780   -2.107450   -0.224250
     19          6           0        3.472950   -1.537690    0.344400
     20          6           0        3.492060   -0.173550    0.593570
     21          6           0        2.388850    0.606370    0.283940
     22          1           0        0.371560   -1.771760   -0.986700
     23          1           0        2.318830   -3.169120   -0.436060
     24          1           0        4.333960   -2.148970    0.583380
     25          1           0        4.370130    0.289470    1.025720
     26          1           0        2.445550    1.671140    0.472590
     27          1           0       -1.799940    0.739560   -1.749360
     28          8           0       -3.009130   -1.064790   -0.548560
     29          6           0       -3.756400   -1.888480    0.331620
     30          1           0       -3.212160   -2.801030    0.578960
     31          1           0       -4.000200   -1.362040    1.255690
     32          1           0       -4.671570   -2.140700   -0.199580
 ---------------------------------------------------------------------
                    Distance matrix (angstroms):
                    1          2          3          4          5
     1  C    0.000000
     2  C    1.413689   0.000000
     3  O    2.368644   1.234031   0.000000
     4  C    1.409109   2.473682   2.915774   0.000000
     5  C    3.122962   3.575268   3.728633   2.833047   0.000000
     6  H    3.968498   4.107632   4.034092   3.782821   1.090179
     7  H    3.722287   4.448947   4.711617   3.217721   1.088117
     8  H    2.572979   3.012682   3.462764   2.771852   1.092319
     9  N    2.666136   3.099107   3.008634   1.941869   1.454827
    10  H    3.546957   4.013924   3.773129   2.541767   2.059880
    11  H    2.686693   2.633509   2.203382   2.286667   2.057547
    12  C    2.461807   3.790932   4.389405   1.512983   3.165983
    13  H    2.847202   4.213473   4.923333   2.130120   4.221882
    14  H    2.639213   3.967119   4.708843   2.157855   2.866930
    15  H    3.384936   4.599890   4.989694   2.171332   3.336238
    16  C    2.542038   3.131132   3.123646   1.512714   3.925883
    17  C    2.963882   3.184599   3.128249   2.518635   5.054506
    18  C    4.347185   4.437292   4.155232   3.801069   6.217443
    19  C    5.186012   5.396456   4.990235   4.316951   6.473223
    20  C    4.960616   5.372872   4.996579   3.816706   5.645553
    21  C    3.804394   4.392732   4.179737   2.540507   4.333821
    22  H    2.603953   2.654567   2.848068   2.701534   5.227320
    23  H    4.971275   4.893059   4.617311   4.656778   7.110805
    24  H    6.243843   6.385420   5.910866   5.399439   7.504891
    25  H    5.908110   6.351051   5.922257   4.678220   6.197901
    26  H    4.141776   4.860754   4.693491   2.764586   3.930529
    27  H    1.081066   2.137820   3.271635   2.146677   3.404721
    28  O    2.316026   1.363177   2.251814   3.643316   4.479270
    29  C    3.617830   2.364800   2.622986   4.831513   5.334679
    30  H    4.017709   2.692692   2.637567   5.095536   5.937391
    31  H    3.951067   2.666077   2.618732   5.034579   4.984262
    32  H    4.323933   3.246316   3.684644   5.641994   6.093713
                    6          7          8          9         10
     6  H    0.000000
     7  H    1.775894   0.000000
     8  H    1.774780   1.777818   0.000000
     9  N    2.117828   2.089128   2.072061   0.000000
    10  H    2.522217   2.343470   2.928757   1.011686   0.000000
    11  H    2.377687   2.944333   2.449975   1.017686   1.650736
    12  C    4.241046   3.027155   3.165919   2.695645   3.028199
    13  H    5.301856   4.084708   4.093690   3.698740   4.018717
    14  H    3.944581   2.570440   2.681073   2.932372   3.400116
    15  H    4.332405   2.984657   3.662503   2.772234   2.723727
    16  C    4.716923   4.335780   4.091909   2.625062   2.817621
    17  C    5.786293   5.588574   5.041723   3.794888   4.091201
    18  C    6.875569   6.725715   6.323616   4.853521   4.941902
    19  C    7.080844   6.861379   6.796809   5.037752   4.841445
    20  C    6.249751   5.892953   6.135502   4.232972   3.829233
    21  C    5.029349   4.555029   4.804293   2.962512   2.646275
    22  H    5.965938   5.838847   4.987909   4.154597   4.667282
    23  H    7.747442   7.677288   7.120808   5.786932   5.950612
    24  H    8.067967   7.886386   7.858838   6.059155   5.798459
    25  H    6.731712   6.334994   6.818598   4.836640   4.236651
    26  H    4.603297   3.945530   4.578156   2.712907   2.119944
    27  H    4.291650   3.830365   2.618321   3.350101   4.244431
    28  O    4.925529   5.331829   3.675066   4.312726   5.277805
    29  C    5.535100   6.298446   4.603753   5.182790   6.107010
    30  H    6.148352   6.925399   5.329283   5.537648   6.380359
    31  H    4.977907   6.005504   4.339054   4.964136   5.857446
    32  H    6.298391   7.002359   5.248838   6.091694   7.050417
                   11         12         13         14         15
    11  H    0.000000
    12  C    3.433345   0.000000
    13  H    4.325397   1.091682   0.000000
    14  H    3.733207   1.089370   1.767746   0.000000
    15  H    3.632960   1.088868   1.760629   1.773236   0.000000
    16  C    2.675163   2.520181   2.809305   3.463549   2.740896
    17  C    3.566168   3.605487   3.587440   4.510391   3.997746
    18  C    4.568344   4.751466   4.650649   5.738997   4.943124
    19  C    4.861449   5.064501   5.052061   6.115389   4.951998
    20  C    4.259613   4.353290   4.522451   5.388912   3.997208
    21  C    3.162611   3.060978   3.417317   4.055189   2.744539
    22  H    3.854280   3.847222   3.740839   4.591184   4.484603
    23  H    5.411198   5.642234   5.439958   6.592568   5.929657
    24  H    5.846947   6.108518   6.045743   7.170611   5.941836
    25  H    4.939136   5.033759   5.241891   6.039708   4.475320
    26  H    3.186494   2.909035   3.464460   3.782933   2.262751
    27  H    3.542058   2.594991   2.838963   2.395311   3.639643
    28  O    3.874096   4.759192   5.050508   4.737615   5.685915
    29  C    4.534399   6.066271   6.412133   6.062665   6.926824
    30  H    4.786137   6.442931   6.719894   6.609419   7.258226
    31  H    4.250934   6.286797   6.797365   6.224137   7.052970
    32  H    5.519373   6.751941   7.020265   6.642021   7.680952
                   16         17         18         19         20
    16  C    0.000000
    17  C    1.392200   0.000000
    18  C    2.419951   1.386290   0.000000
    19  C    2.806145   2.405260   1.386728   0.000000
    20  C    2.423157   2.764653   2.393187   1.386841   0.000000
    21  C    1.394747   2.387068   2.761360   2.403315   1.386080
    22  H    2.136770   1.081134   2.140951   3.383081   3.845653
    23  H    3.394768   2.139173   1.082880   2.145384   3.377876
    24  H    3.888783   3.388034   2.148210   1.082642   2.147367
    25  H    3.397854   3.847233   3.378423   2.146542   1.082658
    26  H    2.157119   3.378753   3.843655   3.371732   2.124312
    27  H    3.450476   3.872653   5.253746   6.113352   5.859040
    28  O    4.398060   4.259389   5.463146   6.560364   6.660649
    29  C    5.388247   5.103858   6.129367   7.237867   7.453172
    30  H    5.348973   4.822517   5.656383   6.807477   7.200724
    31  H    5.632973   5.538344   6.556824   7.530556   7.614780
    32  H    6.300459   5.979349   7.015472   8.184909   8.434668
                   21         22         23         24         25
    21  C    0.000000
    22  H    3.367416   0.000000
    23  H    3.844168   2.459203   0.000000
    24  H    3.386003   4.278791   2.478046   0.000000
    25  H    2.139190   4.928191   4.278607   2.478500   0.000000
    26  H    1.082838   4.276040   4.926441   4.262817   2.432894
    27  H    4.658112   3.406434   5.828105   7.170077   6.780370
    28  O    5.711744   3.481499   5.729574   7.508509   7.665889
    29  C    6.632545   4.334933   6.256020   8.098467   8.441903
    30  H    6.562677   4.043975   5.635389   7.574241   8.200116
    31  H    6.755657   4.930362   6.786582   8.398183   8.534799
    32  H    7.591424   5.117503   7.069601   9.039506   9.442427
                   26         27         28         29         30
    26  H    0.000000
    27  H    4.881505   0.000000
    28  O    6.187212   2.481882   0.000000
    29  C    7.152269   3.881341   1.418307   0.000000
    30  H    7.212579   4.466679   2.080157   1.090927   0.000000
    31  H    7.166667   4.276470   2.079879   1.091093   1.774729
    32  H    8.101564   4.352468   2.010740   1.087807   1.781022
                   31         32
    31  H    0.000000
    32  H    1.781814   0.000000
 Stoichiometry    C12H17NO2
 Framework group  C1[X(C12H17NO2)]
 Deg. of freedom    90
 Full point group                 C1      NOp   1
 Largest Abelian subgroup         C1      NOp   1
 Largest concise Abelian subgroup C1      NOp   1
                         Standard orientation:                         
 ---------------------------------------------------------------------
 Center     Atomic      Atomic             Coordinates (Angstroms)
 Number     Number       Type             X           Y           Z
 ---------------------------------------------------------------------
      1          6           0        1.192450    0.310060    0.965021
      2          6           0        1.822900   -0.588920    0.074581
      3          8           0        1.428140   -0.915810   -1.047979
      4          6           0       -0.059120    0.894890    0.687291
      5          6           0        1.291901    2.807670   -0.907129
      6          1           0        1.722831    3.019280   -1.885909
      7          1           0        0.918571    3.732670   -0.472389
      8          1           0        2.070121    2.394750   -0.261349
      9          7           0        0.212550    1.835700   -0.989589
     10          1           0       -0.623319    2.231280   -1.399889
     11          1           0        0.488900    1.018370   -1.529299
     12          6           0       -0.451649    2.022760    1.616241
     13          1           0       -0.781280    1.594990    2.564991
     14          1           0        0.395441    2.678850    1.812991
     15          1           0       -1.273459    2.615171    1.217101
     16          6           0       -1.237460    0.044381    0.267231
     17          6           0       -1.242390   -1.322879    0.529521
     18          6           0       -2.343780   -2.107449    0.224251
     19          6           0       -3.472950   -1.537689   -0.344399
     20          6           0       -3.492060   -0.173549   -0.593569
     21          6           0       -2.388850    0.606371   -0.283939
     22          1           0       -0.371560   -1.771760    0.986701
     23          1           0       -2.318831   -3.169119    0.436061
     24          1           0       -4.333960   -2.148969   -0.583379
     25          1           0       -4.370130    0.289471   -1.025719
     26          1           0       -2.445550    1.671141   -0.472589
     27          1           0        1.799940    0.739560    1.749361
     28          8           0        3.009130   -1.064790    0.548561
     29          6           0        3.756400   -1.888481   -0.331619
     30          1           0        3.212159   -2.801030   -0.578959
     31          1           0        4.000200   -1.362041   -1.255689
     32          1           0        4.671570   -2.140701    0.199581
 ---------------------------------------------------------------------
 Rotational constants (GHZ):           0.8294596           0.4447032           0.3422172
 Standard basis: def2TZVP (5D, 7F)
 There are   642 symmetry adapted cartesian basis functions of A   symmetry.
 There are   567 symmetry adapted basis functions of A   symmetry.
   567 basis functions,   901 primitive gaussians,   642 cartesian basis functions
    56 alpha electrons       56 beta electrons
       nuclear repulsion energy      1025.2924606872 Hartrees.
 NAtoms=   32 NActive=   32 NUniq=   32 SFac= 1.00D+00 NAtFMM=   60 NAOKFM=F Big=F
 Integral buffers will be    131072 words long.
 Raffenetti 2 integral format.
 Two-electron integral symmetry is turned on.
 Nuclear repulsion after empirical dispersion term =     1025.2683008143 Hartrees.
 Force inversion solution in PCM.
 ------------------------------------------------------------------------------
 Polarizable Continuum Model (PCM)
 =================================
 Model                : PCM.
 Atomic radii         : UFF (Universal Force Field).
 Polarization charges : Total charges.
 Charge compensation  : None.
 Solution method      : Matrix inversion.
 Cavity type          : Scaled VdW (van der Waals Surface) (Alpha=1.100).
 Cavity algorithm     : GePol (No added spheres)
                        Default sphere list used, NSphG=   32.
                        Lebedev-Laikov grids with approx.  5.0 points / Ang**2.
                        Smoothing algorithm: York/Karplus (Gamma=1.0000).
                        Polarization charges: spherical gaussians, with
                                              point-specific exponents (IZeta= 3).
                        Self-potential: point-specific (ISelfS= 7).
                        Self-field    : sphere-specific E.n sum rule (ISelfD= 2).
 1st derivatives      : Analytical E(r).r(x)/FMM algorithm (CHGder, D1EAlg=3).
                        Cavity 1st derivative terms included.
 2nd derivatives      : Analytical E(r).r(xy)/FMM algorithm (CHGder, D2EAlg=3).
                        Cavity 2nd derivative terms included.
 Solvent              : Water, Eps=  78.355300 Eps(inf)=   1.777849
 ------------------------------------------------------------------------------
 One-electron integrals computed using PRISM.
   1 Symmetry operations used in ECPInt.
 ECPInt:  NShTT=   27261 NPrTT=   81384 LenC2=   25317 LenP2D=   56181.
 LDataN:  DoStor=T MaxTD1= 6 Len=  172
 NBasis=   567 RedAO= T EigKep=  7.27D-06  NBF=   567
 NBsUse=   567 1.00D-06 EigRej= -1.00D+00 NBFU=   567
 ExpMin= 9.52D-02 ExpMax= 2.70D+04 ExpMxC= 9.22D+02 IAcc=3 IRadAn=         5 AccDes= 0.00D+00
 Harris functional with IExCor= 4639 and IRadAn=       5 diagonalized for initial guess.
 HarFok:  IExCor= 4639 AccDes= 0.00D+00 IRadAn=         5 IDoV= 1 UseB2=F ITyADJ=14
 ICtDFT=  3500011 ScaDFX=  1.000000  1.000000  1.000000  1.000000
 FoFCou: FMM=F IPFlag=           0 FMFlag=      100000 FMFlg1=           0
         NFxFlg=           0 DoJE=T BraDBF=F KetDBF=T FulRan=T
         wScrn=  0.000000 ICntrl=       500 IOpCl=  0 I1Cent=   200000004 NGrid=           0
         NMat0=    1 NMatS0=      1 NMatT0=    0 NMatD0=    1 NMtDS0=    0 NMtDT0=    0
 Petite list used in FoFCou.
 Requested convergence on RMS density matrix=1.00D-08 within 128 cycles.
 Requested convergence on MAX density matrix=1.00D-06.
 Requested convergence on             energy=1.00D-06.
 No special actions if energy rises.
 Inv3:  Mode=1 IEnd=    14985675.
 Iteration    1 A*A^-1 deviation from unit magnitude is 5.55D-15 for   2230.
 Iteration    1 A*A^-1 deviation from orthogonality  is 7.22D-15 for   2202     65.
 Iteration    1 A^-1*A deviation from unit magnitude is 5.55D-15 for   2230.
 Iteration    1 A^-1*A deviation from orthogonality  is 3.42D-15 for   2216     51.
 Error on total polarization charges =  0.01475
 SCF Done:  E(RwB97XD) =  -672.718122344     A.U. after   14 cycles
            NFock= 14  Conv=0.99D-08     -V/T= 2.0049
 DoSCS=F DFT=T ScalE2(SS,OS)=  1.000000  1.000000
 Range of M.O.s used for correlation:     1   567
 NBasis=   567 NAE=    56 NBE=    56 NFC=     0 NFV=     0
 NROrb=    567 NOA=    56 NOB=    56 NVA=   511 NVB=   511

 **** Warning!!: The largest alpha MO coefficient is  0.45067319D+02

   1 Symmetry operations used in ECPInt.
 ECPInt:  NShTT=   27261 NPrTT=   81384 LenC2=   25317 LenP2D=   56181.
 LDataN:  DoStor=T MaxTD1= 7 Len=  274
 Symmetrizing basis deriv contribution to polar:
 IMax=3 JMax=2 DiffMx= 0.00D+00
 G2DrvN: will do    33 centers at a time, making    1 passes.
 Calling FoFCou, ICntrl=  3107 FMM=F I1Cent=   0 AccDes= 0.00D+00.
 NEqPCM:  Using equilibrium solvation (IEInf=0, Eps=  78.3553, EpsInf=   1.7778)
 G2PCM: DoFxE=T DoFxN=T DoGrad=T DoDP/DQ/DG/TGxP=FFFF NFrqRd=   0 IEInf=0 SqF1=F DoCFld=F IF1Alg=4.
 End of G2Drv F.D. properties file   721 does not exist.
 End of G2Drv F.D. properties file   722 does not exist.
 End of G2Drv F.D. properties file   788 does not exist.
          IDoAtm=11111111111111111111111111111111
 NEqPCM:  Using equilibrium solvation (IEInf=0, Eps=  78.3553, EpsInf=   1.7778)
          Differentiating once with respect to nuclear coordinates.
 CalDSu exits because no D1Ps are significant.
          There are    99 degrees of freedom in the 1st order CPHF.  IDoFFX=6 NUNeed=     0.
     93 vectors produced by pass  0 Test12= 2.89D-14 1.01D-09 XBig12= 1.05D-01 1.06D-01.
 AX will form    93 AO Fock derivatives at one time.
     93 vectors produced by pass  1 Test12= 2.89D-14 1.01D-09 XBig12= 1.74D-02 3.08D-02.
     93 vectors produced by pass  2 Test12= 2.89D-14 1.01D-09 XBig12= 4.83D-04 2.62D-03.
     93 vectors produced by pass  3 Test12= 2.89D-14 1.01D-09 XBig12= 7.17D-06 3.02D-04.
     93 vectors produced by pass  4 Test12= 2.89D-14 1.01D-09 XBig12= 6.77D-08 2.44D-05.
     93 vectors produced by pass  5 Test12= 2.89D-14 1.01D-09 XBig12= 5.99D-10 1.71D-06.
     93 vectors produced by pass  6 Test12= 2.89D-14 1.01D-09 XBig12= 4.32D-12 1.53D-07.
     35 vectors produced by pass  7 Test12= 2.89D-14 1.01D-09 XBig12= 2.73D-14 1.69D-08.
      9 vectors produced by pass  8 Test12= 2.89D-14 1.01D-09 XBig12= 2.38D-15 3.60D-09.
      8 vectors produced by pass  9 Test12= 2.89D-14 1.01D-09 XBig12= 5.74D-15 6.02D-09.
      5 vectors produced by pass 10 Test12= 2.89D-14 1.01D-09 XBig12= 1.85D-15 4.47D-09.
      2 vectors produced by pass 11 Test12= 2.89D-14 1.01D-09 XBig12= 6.01D-16 1.77D-09.
 InvSVY:  IOpt=1 It=  1 EMax= 6.11D-16
 Solved reduced A of dimension   710 with    99 vectors.
 End of Minotr F.D. properties file   721 does not exist.
 End of Minotr F.D. properties file   722 does not exist.
 End of Minotr F.D. properties file   788 does not exist.

 **********************************************************************

            Population analysis using the SCF density.

 **********************************************************************

 Orbital symmetries:
       Occupied  (A) (A) (A) (A) (A) (A) (A) (A) (A) (A) (A) (A)
                 (A) (A) (A) (A) (A) (A) (A) (A) (A) (A) (A) (A)
                 (A) (A) (A) (A) (A) (A) (A) (A) (A) (A) (A) (A)
                 (A) (A) (A) (A) (A) (A) (A) (A) (A) (A) (A) (A)
                 (A) (A) (A) (A) (A) (A) (A) (A)
       Virtual   (A) (A) (A) (A) (A) (A) (A) (A) (A) (A) (A) (A)
                 (A) (A) (A) (A) (A) (A) (A) (A) (A) (A) (A) (A)
                 (A) (A) (A) (A) (A) (A) (A) (A) (A) (A) (A) (A)
                 (A) (A) (A) (A) (A) (A) (A) (A) (A) (A) (A) (A)
                 (A) (A) (A) (A) (A) (A) (A) (A) (A) (A) (A) (A)
                 (A) (A) (A) (A) (A) (A) (A) (A) (A) (A) (A) (A)
                 (A) (A) (A) (A) (A) (A) (A) (A) (A) (A) (A) (A)
                 (A) (A) (A) (A) (A) (A) (A) (A) (A) (A) (A) (A)
                 (A) (A) (A) (A) (A) (A) (A) (A) (A) (A) (A) (A)
                 (A) (A) (A) (A) (A) (A) (A) (A) (A) (A) (A) (A)
                 (A) (A) (A) (A) (A) (A) (A) (A) (A) (A) (A) (A)
                 (A) (A) (A) (A) (A) (A) (A) (A) (A) (A) (A) (A)
                 (A) (A) (A) (A) (A) (A) (A) (A) (A) (A) (A) (A)
                 (A) (A) (A) (A) (A) (A) (A) (A) (A) (A) (A) (A)
                 (A) (A) (A) (A) (A) (A) (A) (A) (A) (A) (A) (A)
                 (A) (A) (A) (A) (A) (A) (A) (A) (A) (A) (A) (A)
                 (A) (A) (A) (A) (A) (A) (A) (A) (A) (A) (A) (A)
                 (A) (A) (A) (A) (A) (A) (A) (A) (A) (A) (A) (A)
                 (A) (A) (A) (A) (A) (A) (A) (A) (A) (A) (A) (A)
                 (A) (A) (A) (A) (A) (A) (A) (A) (A) (A) (A) (A)
                 (A) (A) (A) (A) (A) (A) (A) (A) (A) (A) (A) (A)
                 (A) (A) (A) (A) (A) (A) (A) (A) (A) (A) (A) (A)
                 (A) (A) (A) (A) (A) (A) (A) (A) (A) (A) (A) (A)
                 (A) (A) (A) (A) (A) (A) (A) (A) (A) (A) (A) (A)
                 (A) (A) (A) (A) (A) (A) (A) (A) (A) (A) (A) (A)
                 (A) (A) (A) (A) (A) (A) (A) (A) (A) (A) (A) (A)
                 (A) (A) (A) (A) (A) (A) (A) (A) (A) (A) (A) (A)
                 (A) (A) (A) (A) (A) (A) (A) (A) (A) (A) (A) (A)
                 (A) (A) (A) (A) (A) (A) (A) (A) (A) (A) (A) (A)
                 (A) (A) (A) (A) (A) (A) (A) (A) (A) (A) (A) (A)
                 (A) (A) (A) (A) (A) (A) (A) (A) (A) (A) (A) (A)
                 (A) (A) (A) (A) (A) (A) (A) (A) (A) (A) (A) (A)
                 (A) (A) (A) (A) (A) (A) (A) (A) (A) (A) (A) (A)
                 (A) (A) (A) (A) (A) (A) (A) (A) (A) (A) (A) (A)
                 (A) (A) (A) (A) (A) (A) (A) (A) (A) (A) (A) (A)
                 (A) (A) (A) (A) (A) (A) (A) (A) (A) (A) (A) (A)
                 (A) (A) (A) (A) (A) (A) (A) (A) (A) (A) (A) (A)
                 (A) (A) (A) (A) (A) (A) (A) (A) (A) (A) (A) (A)
                 (A) (A) (A) (A) (A) (A) (A) (A) (A) (A) (A) (A)
                 (A) (A) (A) (A) (A) (A) (A) (A) (A) (A) (A) (A)
                 (A) (A) (A) (A) (A) (A) (A) (A) (A) (A) (A) (A)
                 (A) (A) (A) (A) (A) (A) (A) (A) (A) (A) (A) (A)
                 (A) (A) (A) (A) (A) (A) (A)
 The electronic state is 1-A.
 Alpha  occ. eigenvalues --  -19.27293 -19.20603 -14.47329 -10.38496 -10.35056
 Alpha  occ. eigenvalues --  -10.32210 -10.31113 -10.30243 -10.29302 -10.29082
 Alpha  occ. eigenvalues --  -10.29010 -10.28914 -10.28807 -10.28067 -10.23968
 Alpha  occ. eigenvalues --   -1.18395  -1.08907  -1.03129  -0.97057  -0.91251
 Alpha  occ. eigenvalues --   -0.85328  -0.84558  -0.82857  -0.78434  -0.77897
 Alpha  occ. eigenvalues --   -0.71852  -0.70305  -0.66930  -0.63681  -0.62174
 Alpha  occ. eigenvalues --   -0.60997  -0.57782  -0.56954  -0.56265  -0.55549
 Alpha  occ. eigenvalues --   -0.54866  -0.53790  -0.53248  -0.51114  -0.50891
 Alpha  occ. eigenvalues --   -0.49550  -0.48956  -0.47664  -0.47015  -0.46359
 Alpha  occ. eigenvalues --   -0.46225  -0.45861  -0.42961  -0.42399  -0.42328
 Alpha  occ. eigenvalues --   -0.40535  -0.37458  -0.35122  -0.33730  -0.32724
 Alpha  occ. eigenvalues --   -0.27143
 Alpha virt. eigenvalues --    0.02955   0.05383   0.08247   0.10415   0.13061
 Alpha virt. eigenvalues --    0.13608   0.14152   0.15174   0.15885   0.16395
 Alpha virt. eigenvalues --    0.16704   0.16854   0.18036   0.18695   0.19551
 Alpha virt. eigenvalues --    0.19818   0.20175   0.20320   0.21183   0.21572
 Alpha virt. eigenvalues --    0.21921   0.22574   0.23005   0.24045   0.25209
 Alpha virt. eigenvalues --    0.26551   0.27193   0.28040   0.28312   0.28571
 Alpha virt. eigenvalues --    0.29260   0.29636   0.30195   0.31354   0.31945
 Alpha virt. eigenvalues --    0.32068   0.32415   0.32738   0.34269   0.35099
 Alpha virt. eigenvalues --    0.36089   0.36581   0.37042   0.37829   0.38448
 Alpha virt. eigenvalues --    0.39649   0.39963   0.40712   0.41084   0.41971
 Alpha virt. eigenvalues --    0.42722   0.43854   0.44388   0.44945   0.45358
 Alpha virt. eigenvalues --    0.45684   0.46326   0.46993   0.48052   0.48239
 Alpha virt. eigenvalues --    0.48629   0.48767   0.48969   0.49477   0.50576
 Alpha virt. eigenvalues --    0.50683   0.51080   0.51848   0.52146   0.53264
 Alpha virt. eigenvalues --    0.53323   0.53810   0.53959   0.54335   0.55100
 Alpha virt. eigenvalues --    0.56053   0.56461   0.56794   0.57491   0.57628
 Alpha virt. eigenvalues --    0.58147   0.59161   0.60198   0.60842   0.61570
 Alpha virt. eigenvalues --    0.61809   0.62408   0.63202   0.63814   0.66125
 Alpha virt. eigenvalues --    0.67188   0.68399   0.69831   0.71019   0.71423
 Alpha virt. eigenvalues --    0.72090   0.72982   0.73856   0.75357   0.75756
 Alpha virt. eigenvalues --    0.76611   0.77288   0.78604   0.79015   0.79231
 Alpha virt. eigenvalues --    0.80894   0.81010   0.82128   0.83239   0.83938
 Alpha virt. eigenvalues --    0.85830   0.87877   0.88269   0.89012   0.90349
 Alpha virt. eigenvalues --    0.90973   0.92120   0.93119   0.93832   0.94780
 Alpha virt. eigenvalues --    0.95669   0.97229   0.97496   0.99129   0.99390
 Alpha virt. eigenvalues --    1.00235   1.01071   1.01265   1.02580   1.03470
 Alpha virt. eigenvalues --    1.05348   1.05686   1.06885   1.08983   1.09732
 Alpha virt. eigenvalues --    1.11287   1.11903   1.13589   1.14593   1.15687
 Alpha virt. eigenvalues --    1.16159   1.17152   1.17844   1.18787   1.20114
 Alpha virt. eigenvalues --    1.21960   1.22893   1.23470   1.26839   1.27709
 Alpha virt. eigenvalues --    1.28993   1.31192   1.31610   1.32877   1.33041
 Alpha virt. eigenvalues --    1.33791   1.34724   1.35439   1.36323   1.37458
 Alpha virt. eigenvalues --    1.39429   1.39936   1.40449   1.42778   1.44688
 Alpha virt. eigenvalues --    1.46697   1.48288   1.49891   1.50866   1.51933
 Alpha virt. eigenvalues --    1.53356   1.54473   1.55036   1.55989   1.57021
 Alpha virt. eigenvalues --    1.57489   1.57995   1.58577   1.59782   1.61007
 Alpha virt. eigenvalues --    1.61733   1.62328   1.62410   1.63540   1.64556
 Alpha virt. eigenvalues --    1.65382   1.67141   1.67543   1.67698   1.68372
 Alpha virt. eigenvalues --    1.68862   1.69469   1.70709   1.72033   1.73541
 Alpha virt. eigenvalues --    1.73684   1.74191   1.75323   1.76817   1.77353
 Alpha virt. eigenvalues --    1.77979   1.78885   1.80474   1.80900   1.82942
 Alpha virt. eigenvalues --    1.83154   1.84106   1.85073   1.85496   1.86831
 Alpha virt. eigenvalues --    1.91044   1.91595   1.92833   1.94537   1.95655
 Alpha virt. eigenvalues --    1.95753   1.98167   2.00052   2.00929   2.02108
 Alpha virt. eigenvalues --    2.03353   2.04075   2.05835   2.06822   2.07987
 Alpha virt. eigenvalues --    2.08151   2.11253   2.11705   2.12538   2.13302
 Alpha virt. eigenvalues --    2.14036   2.14680   2.16200   2.16875   2.18063
 Alpha virt. eigenvalues --    2.18669   2.20675   2.21935   2.22992   2.24283
 Alpha virt. eigenvalues --    2.24571   2.25654   2.26199   2.28776   2.31803
 Alpha virt. eigenvalues --    2.32065   2.32734   2.33084   2.34181   2.35233
 Alpha virt. eigenvalues --    2.36949   2.38153   2.39467   2.41048   2.41777
 Alpha virt. eigenvalues --    2.43193   2.44069   2.45135   2.46732   2.48316
 Alpha virt. eigenvalues --    2.48956   2.50763   2.51675   2.52195   2.53671
 Alpha virt. eigenvalues --    2.54555   2.56885   2.58257   2.59753   2.61491
 Alpha virt. eigenvalues --    2.62281   2.63063   2.63309   2.64575   2.65214
 Alpha virt. eigenvalues --    2.66364   2.66639   2.68023   2.69028   2.69558
 Alpha virt. eigenvalues --    2.70489   2.71669   2.73312   2.73561   2.73825
 Alpha virt. eigenvalues --    2.75140   2.75969   2.77277   2.78331   2.78648
 Alpha virt. eigenvalues --    2.79381   2.80483   2.81718   2.82363   2.83404
 Alpha virt. eigenvalues --    2.83879   2.84336   2.85409   2.86695   2.87573
 Alpha virt. eigenvalues --    2.88611   2.89040   2.90871   2.92055   2.92498
 Alpha virt. eigenvalues --    2.93155   2.93988   2.94339   2.95437   2.96633
 Alpha virt. eigenvalues --    2.97972   2.99930   3.00300   3.01947   3.03654
 Alpha virt. eigenvalues --    3.04610   3.05513   3.06785   3.09006   3.10496
 Alpha virt. eigenvalues --    3.10832   3.12661   3.12977   3.13978   3.15756
 Alpha virt. eigenvalues --    3.16102   3.16909   3.18892   3.20611   3.20706
 Alpha virt. eigenvalues --    3.21392   3.22027   3.23509   3.23907   3.25221
 Alpha virt. eigenvalues --    3.25768   3.26715   3.27565   3.29016   3.29671
 Alpha virt. eigenvalues --    3.31043   3.31764   3.32910   3.33464   3.33799
 Alpha virt. eigenvalues --    3.34616   3.35592   3.36398   3.37464   3.38246
 Alpha virt. eigenvalues --    3.39119   3.40173   3.40529   3.41985   3.43476
 Alpha virt. eigenvalues --    3.43949   3.44188   3.44738   3.46094   3.47026
 Alpha virt. eigenvalues --    3.47987   3.48689   3.49699   3.50578   3.51398
 Alpha virt. eigenvalues --    3.52545   3.54067   3.55167   3.56171   3.56347
 Alpha virt. eigenvalues --    3.56761   3.57966   3.58349   3.59089   3.59894
 Alpha virt. eigenvalues --    3.60938   3.62868   3.63563   3.63919   3.65879
 Alpha virt. eigenvalues --    3.66342   3.68507   3.69041   3.70285   3.71324
 Alpha virt. eigenvalues --    3.72663   3.75162   3.75998   3.76355   3.77818
 Alpha virt. eigenvalues --    3.79988   3.81279   3.83482   3.86626   3.88148
 Alpha virt. eigenvalues --    3.89248   3.92310   3.92861   3.96087   3.97869
 Alpha virt. eigenvalues --    3.99009   4.00650   4.02864   4.05127   4.08357
 Alpha virt. eigenvalues --    4.09921   4.11512   4.12547   4.15115   4.17906
 Alpha virt. eigenvalues --    4.19434   4.22437   4.23284   4.25050   4.26129
 Alpha virt. eigenvalues --    4.27359   4.28764   4.29774   4.31160   4.31960
 Alpha virt. eigenvalues --    4.32527   4.34866   4.36106   4.37503   4.39357
 Alpha virt. eigenvalues --    4.40254   4.42073   4.42607   4.44288   4.46094
 Alpha virt. eigenvalues --    4.47094   4.49840   4.53022   4.54836   4.57173
 Alpha virt. eigenvalues --    4.57968   4.60976   4.65436   4.67010   4.69568
 Alpha virt. eigenvalues --    4.70113   4.74097   4.76773   4.79324   4.80297
 Alpha virt. eigenvalues --    4.83263   4.85651   4.92716   4.96908   4.99327
 Alpha virt. eigenvalues --    5.00224   5.01928   5.02697   5.05293   5.12006
 Alpha virt. eigenvalues --    5.13330   5.14232   5.18783   5.22548   5.23951
 Alpha virt. eigenvalues --    5.24873   5.27907   5.30658   5.33275   5.36125
 Alpha virt. eigenvalues --    5.37347   5.39738   5.45486   5.49237   5.50608
 Alpha virt. eigenvalues --    5.55725   5.56969   5.60403   5.61855   5.63639
 Alpha virt. eigenvalues --    5.72731   5.79152   5.80970   5.93913   5.95956
 Alpha virt. eigenvalues --    6.04986   6.19245   6.27490   6.37103   6.45931
 Alpha virt. eigenvalues --    6.53744   6.66995   6.76645   6.80736   6.89890
 Alpha virt. eigenvalues --    6.97580   7.00480   7.15615   7.23381   7.38604
 Alpha virt. eigenvalues --    7.52561  22.22552  22.48602  22.52130  22.59724
 Alpha virt. eigenvalues --   22.69892  22.74752  22.82884  22.91975  22.96008
 Alpha virt. eigenvalues --   23.02066  23.37942  23.47816  32.23543  44.13989
 Alpha virt. eigenvalues --   44.28357
          Condensed to atoms (all electrons):
               1          2          3          4          5          6
     1  C    6.108244   0.326725  -0.148886   0.213551  -0.034536  -0.000980
     2  C    0.326725   4.397751   0.565181  -0.044804   0.006829  -0.000218
     3  O   -0.148886   0.565181   8.170073   0.020274   0.003896   0.000041
     4  C    0.213551  -0.044804   0.020274   5.349596  -0.008352   0.001651
     5  C   -0.034536   0.006829   0.003896  -0.008352   4.888037   0.412085
     6  H   -0.000980  -0.000218   0.000041   0.001651   0.412085   0.508601
     7  H   -0.001162   0.000216  -0.000070  -0.004422   0.415277  -0.018381
     8  H    0.019190  -0.002754  -0.002123   0.008002   0.415110  -0.023436
     9  N   -0.074249   0.017909  -0.017025   0.054961   0.241449  -0.022084
    10  H    0.012016  -0.001825   0.000434   0.003054  -0.019635  -0.003441
    11  H   -0.021872   0.000017   0.029268  -0.021394  -0.020944  -0.006589
    12  C   -0.071628   0.007173   0.001146   0.269630   0.001407   0.000581
    13  H   -0.002837  -0.000149   0.000015  -0.045484  -0.000525   0.000021
    14  H   -0.005558  -0.001461   0.000014  -0.047469   0.001277   0.000118
    15  H    0.012717  -0.000162   0.000054  -0.028459  -0.000918  -0.000051
    16  C   -0.056810  -0.024416   0.000250   0.154101   0.001169  -0.000597
    17  C   -0.027125   0.002415   0.008672  -0.082482  -0.000044  -0.000014
    18  C   -0.002463   0.004209   0.002278   0.021877  -0.000033   0.000002
    19  C    0.001002  -0.000411  -0.001204  -0.009282   0.000025  -0.000001
    20  C   -0.001379   0.000278   0.000979   0.011391  -0.000194   0.000009
    21  C    0.019181   0.000880  -0.007318  -0.090416   0.001138   0.000044
    22  H    0.012872  -0.001085  -0.009857  -0.020404   0.000087  -0.000000
    23  H   -0.000034   0.000069   0.000136   0.000100  -0.000001   0.000000
    24  H    0.000002  -0.000002  -0.000006  -0.000002   0.000000  -0.000000
    25  H    0.000002   0.000001   0.000002  -0.000136  -0.000001  -0.000000
    26  H    0.000636   0.000152  -0.000006   0.012045   0.000180   0.000058
    27  H    0.447227  -0.035489   0.005111  -0.063193  -0.001047  -0.000009
    28  O   -0.124185   0.381438  -0.087665   0.013372  -0.000677   0.000032
    29  C    0.005519  -0.047203   0.004255  -0.000056   0.000132   0.000004
    30  H   -0.001519  -0.006626   0.005820   0.000962  -0.000025   0.000001
    31  H   -0.000682  -0.007239   0.006848  -0.000200   0.000122  -0.000016
    32  H    0.001941   0.002831   0.002169  -0.000150  -0.000001   0.000000
               7          8          9         10         11         12
     1  C   -0.001162   0.019190  -0.074249   0.012016  -0.021872  -0.071628
     2  C    0.000216  -0.002754   0.017909  -0.001825   0.000017   0.007173
     3  O   -0.000070  -0.002123  -0.017025   0.000434   0.029268   0.001146
     4  C   -0.004422   0.008002   0.054961   0.003054  -0.021394   0.269630
     5  C    0.415277   0.415110   0.241449  -0.019635  -0.020944   0.001407
     6  H   -0.018381  -0.023436  -0.022084  -0.003441  -0.006589   0.000581
     7  H    0.508564  -0.023173  -0.031982  -0.006967   0.005003   0.002251
     8  H   -0.023173   0.519997  -0.056220   0.007086  -0.003221  -0.008980
     9  N   -0.031982  -0.056220   6.586126   0.337529   0.361759  -0.001946
    10  H   -0.006967   0.007086   0.337529   0.436649  -0.022029  -0.008999
    11  H    0.005003  -0.003221   0.361759  -0.022029   0.412743   0.005684
    12  C    0.002251  -0.008980  -0.001946  -0.008999   0.005684   5.011256
    13  H    0.000029  -0.000208   0.005630  -0.000116  -0.000203   0.410088
    14  H   -0.002121   0.000719  -0.005543   0.000249  -0.000149   0.416922
    15  H   -0.000565   0.000250  -0.003680   0.000693   0.000305   0.427685
    16  C    0.000994   0.001056  -0.075644  -0.004110   0.004835  -0.062769
    17  C    0.000041  -0.000069   0.004433  -0.000533   0.003221  -0.002961
    18  C   -0.000004   0.000009   0.000714  -0.000151  -0.000413   0.000674
    19  C    0.000003  -0.000003  -0.000452   0.000119   0.000160  -0.000519
    20  C   -0.000030   0.000006   0.003464  -0.000672  -0.000492   0.003696
    21  C   -0.000154  -0.000332  -0.003836   0.004140  -0.000793  -0.009208
    22  H    0.000001  -0.000056   0.000678  -0.000036   0.000212  -0.000637
    23  H   -0.000000  -0.000000   0.000009  -0.000000  -0.000004   0.000017
    24  H    0.000000  -0.000000  -0.000001   0.000001   0.000000  -0.000000
    25  H   -0.000000   0.000000   0.000024  -0.000023   0.000001  -0.000010
    26  H    0.000090  -0.000125   0.000965  -0.000183   0.000097  -0.005928
    27  H    0.000074   0.000094   0.001309  -0.000110   0.000169  -0.004363
    28  O   -0.000004   0.000926   0.000006  -0.000003   0.000837  -0.000021
    29  C    0.000000  -0.000081   0.000189  -0.000010  -0.000095   0.000025
    30  H    0.000000   0.000024   0.000015  -0.000001  -0.000029   0.000007
    31  H    0.000001  -0.000080  -0.000041   0.000004   0.000024  -0.000019
    32  H    0.000000  -0.000004   0.000001  -0.000000  -0.000007  -0.000001
              13         14         15         16         17         18
     1  C   -0.002837  -0.005558   0.012717  -0.056810  -0.027125  -0.002463
     2  C   -0.000149  -0.001461  -0.000162  -0.024416   0.002415   0.004209
     3  O    0.000015   0.000014   0.000054   0.000250   0.008672   0.002278
     4  C   -0.045484  -0.047469  -0.028459   0.154101  -0.082482   0.021877
     5  C   -0.000525   0.001277  -0.000918   0.001169  -0.000044  -0.000033
     6  H    0.000021   0.000118  -0.000051  -0.000597  -0.000014   0.000002
     7  H    0.000029  -0.002121  -0.000565   0.000994   0.000041  -0.000004
     8  H   -0.000208   0.000719   0.000250   0.001056  -0.000069   0.000009
     9  N    0.005630  -0.005543  -0.003680  -0.075644   0.004433   0.000714
    10  H   -0.000116   0.000249   0.000693  -0.004110  -0.000533  -0.000151
    11  H   -0.000203  -0.000149   0.000305   0.004835   0.003221  -0.000413
    12  C    0.410088   0.416922   0.427685  -0.062769  -0.002961   0.000674
    13  H    0.513402  -0.018277  -0.017637   0.008770   0.000528   0.000121
    14  H   -0.018277   0.520640  -0.023698   0.017604  -0.000220  -0.000029
    15  H   -0.017637  -0.023698   0.516484  -0.038493   0.001277  -0.000187
    16  C    0.008770   0.017604  -0.038493   5.502341   0.344001   0.044918
    17  C    0.000528  -0.000220   0.001277   0.344001   5.157954   0.370715
    18  C    0.000121  -0.000029  -0.000187   0.044918   0.370715   5.054137
    19  C   -0.000144   0.000016   0.000118  -0.120265   0.059808   0.364551
    20  C    0.000235  -0.000150   0.000852   0.026743  -0.089188   0.045439
    21  C   -0.003287  -0.000198   0.007975   0.231918   0.077623  -0.124308
    22  H    0.000056   0.000006  -0.000010  -0.063465   0.452175  -0.050806
    23  H    0.000003  -0.000001  -0.000001   0.016173  -0.064241   0.462248
    24  H   -0.000001   0.000000  -0.000000  -0.004732   0.012473  -0.060311
    25  H    0.000006  -0.000001  -0.000020   0.014273  -0.004044   0.011187
    26  H    0.000107   0.000054   0.000710  -0.089962   0.005468  -0.002172
    27  H   -0.000411   0.001797   0.000326   0.007739  -0.000317   0.000008
    28  O    0.000003  -0.000036   0.000004   0.000665  -0.002156  -0.000246
    29  C    0.000000  -0.000003  -0.000001  -0.000503   0.000196   0.000047
    30  H    0.000000  -0.000001  -0.000000  -0.000325   0.000589   0.000096
    31  H   -0.000000   0.000002  -0.000000   0.000129  -0.000062  -0.000017
    32  H    0.000000  -0.000000   0.000000   0.000021  -0.000023  -0.000001
              19         20         21         22         23         24
     1  C    0.001002  -0.001379   0.019181   0.012872  -0.000034   0.000002
     2  C   -0.000411   0.000278   0.000880  -0.001085   0.000069  -0.000002
     3  O   -0.001204   0.000979  -0.007318  -0.009857   0.000136  -0.000006
     4  C   -0.009282   0.011391  -0.090416  -0.020404   0.000100  -0.000002
     5  C    0.000025  -0.000194   0.001138   0.000087  -0.000001   0.000000
     6  H   -0.000001   0.000009   0.000044  -0.000000   0.000000  -0.000000
     7  H    0.000003  -0.000030  -0.000154   0.000001  -0.000000   0.000000
     8  H   -0.000003   0.000006  -0.000332  -0.000056  -0.000000  -0.000000
     9  N   -0.000452   0.003464  -0.003836   0.000678   0.000009  -0.000001
    10  H    0.000119  -0.000672   0.004140  -0.000036  -0.000000   0.000001
    11  H    0.000160  -0.000492  -0.000793   0.000212  -0.000004   0.000000
    12  C   -0.000519   0.003696  -0.009208  -0.000637   0.000017  -0.000000
    13  H   -0.000144   0.000235  -0.003287   0.000056   0.000003  -0.000001
    14  H    0.000016  -0.000150  -0.000198   0.000006  -0.000001   0.000000
    15  H    0.000118   0.000852   0.007975  -0.000010  -0.000001  -0.000000
    16  C   -0.120265   0.026743   0.231918  -0.063465   0.016173  -0.004732
    17  C    0.059808  -0.089188   0.077623   0.452175  -0.064241   0.012473
    18  C    0.364551   0.045439  -0.124308  -0.050806   0.462248  -0.060311
    19  C    5.036558   0.389183   0.066151   0.013512  -0.061893   0.457293
    20  C    0.389183   4.994488   0.391378  -0.005473   0.012982  -0.060873
    21  C    0.066151   0.391378   5.314974   0.015870  -0.005614   0.014579
    22  H    0.013512  -0.005473   0.015870   0.507034  -0.007383  -0.000003
    23  H   -0.061893   0.012982  -0.005614  -0.007383   0.513413  -0.006951
    24  H    0.457293  -0.060873   0.014579  -0.000003  -0.006951   0.511485
    25  H   -0.056334   0.453355  -0.056818   0.000012  -0.000051  -0.006670
    26  H    0.006985  -0.004882   0.435601   0.000048   0.000019  -0.000085
    27  H   -0.000002   0.000011  -0.000435  -0.000134  -0.000001   0.000000
    28  O    0.000014  -0.000006  -0.000004   0.003251  -0.000010   0.000000
    29  C    0.000001   0.000001   0.000016   0.000034  -0.000000   0.000000
    30  H   -0.000012   0.000005  -0.000027  -0.000638   0.000009  -0.000000
    31  H    0.000003  -0.000002   0.000015   0.000151  -0.000001   0.000000
    32  H    0.000000  -0.000000   0.000001   0.000022  -0.000000   0.000000
              25         26         27         28         29         30
     1  C    0.000002   0.000636   0.447227  -0.124185   0.005519  -0.001519
     2  C    0.000001   0.000152  -0.035489   0.381438  -0.047203  -0.006626
     3  O    0.000002  -0.000006   0.005111  -0.087665   0.004255   0.005820
     4  C   -0.000136   0.012045  -0.063193   0.013372  -0.000056   0.000962
     5  C   -0.000001   0.000180  -0.001047  -0.000677   0.000132  -0.000025
     6  H   -0.000000   0.000058  -0.000009   0.000032   0.000004   0.000001
     7  H   -0.000000   0.000090   0.000074  -0.000004   0.000000   0.000000
     8  H    0.000000  -0.000125   0.000094   0.000926  -0.000081   0.000024
     9  N    0.000024   0.000965   0.001309   0.000006   0.000189   0.000015
    10  H   -0.000023  -0.000183  -0.000110  -0.000003  -0.000010  -0.000001
    11  H    0.000001   0.000097   0.000169   0.000837  -0.000095  -0.000029
    12  C   -0.000010  -0.005928  -0.004363  -0.000021   0.000025   0.000007
    13  H    0.000006   0.000107  -0.000411   0.000003   0.000000   0.000000
    14  H   -0.000001   0.000054   0.001797  -0.000036  -0.000003  -0.000001
    15  H   -0.000020   0.000710   0.000326   0.000004  -0.000001  -0.000000
    16  C    0.014273  -0.089962   0.007739   0.000665  -0.000503  -0.000325
    17  C   -0.004044   0.005468  -0.000317  -0.002156   0.000196   0.000589
    18  C    0.011187  -0.002172   0.000008  -0.000246   0.000047   0.000096
    19  C   -0.056334   0.006985  -0.000002   0.000014   0.000001  -0.000012
    20  C    0.453355  -0.004882   0.000011  -0.000006   0.000001   0.000005
    21  C   -0.056818   0.435601  -0.000435  -0.000004   0.000016  -0.000027
    22  H    0.000012   0.000048  -0.000134   0.003251   0.000034  -0.000638
    23  H   -0.000051   0.000019  -0.000001  -0.000010  -0.000000   0.000009
    24  H   -0.006670  -0.000085   0.000000   0.000000   0.000000  -0.000000
    25  H    0.508880  -0.005909  -0.000000  -0.000000  -0.000000   0.000000
    26  H   -0.005909   0.487458  -0.000015   0.000000   0.000000  -0.000000
    27  H   -0.000000  -0.000015   0.510781   0.005884  -0.000352   0.000083
    28  O   -0.000000   0.000000   0.005884   8.017922   0.220184  -0.039600
    29  C   -0.000000   0.000000  -0.000352   0.220184   4.768577   0.418891
    30  H    0.000000  -0.000000   0.000083  -0.039600   0.418891   0.569847
    31  H   -0.000000   0.000000  -0.000030  -0.040691   0.419294  -0.044679
    32  H   -0.000000   0.000000  -0.000243  -0.030746   0.398879  -0.023319
              31         32
     1  C   -0.000682   0.001941
     2  C   -0.007239   0.002831
     3  O    0.006848   0.002169
     4  C   -0.000200  -0.000150
     5  C    0.000122  -0.000001
     6  H   -0.000016   0.000000
     7  H    0.000001   0.000000
     8  H   -0.000080  -0.000004
     9  N   -0.000041   0.000001
    10  H    0.000004  -0.000000
    11  H    0.000024  -0.000007
    12  C   -0.000019  -0.000001
    13  H   -0.000000   0.000000
    14  H    0.000002  -0.000000
    15  H   -0.000000   0.000000
    16  C    0.000129   0.000021
    17  C   -0.000062  -0.000023
    18  C   -0.000017  -0.000001
    19  C    0.000003   0.000000
    20  C   -0.000002  -0.000000
    21  C    0.000015   0.000001
    22  H    0.000151   0.000022
    23  H   -0.000001  -0.000000
    24  H    0.000000   0.000000
    25  H   -0.000000  -0.000000
    26  H    0.000000   0.000000
    27  H   -0.000030  -0.000243
    28  O   -0.040691  -0.030746
    29  C    0.419294   0.398879
    30  H   -0.044679  -0.023319
    31  H    0.569411  -0.022246
    32  H   -0.022246   0.536029
 Mulliken charges:
               1
     1  C   -0.604923
     2  C    0.459770
     3  O   -0.552757
     4  C    0.332138
     5  C   -0.301289
     6  H    0.152567
     7  H    0.156492
     8  H    0.148395
     9  N   -0.324468
    10  H    0.266869
    11  H    0.273896
    12  C   -0.380254
    13  H    0.150266
    14  H    0.145498
    15  H    0.144433
    16  C    0.164392
    17  C   -0.228112
    18  C   -0.142088
    19  C   -0.144981
    20  C   -0.171155
    21  C   -0.278735
    22  H    0.153964
    23  H    0.141009
    24  H    0.143804
    25  H    0.142275
    26  H    0.158590
    27  H    0.125537
    28  O   -0.318486
    29  C   -0.187944
    30  H    0.120452
    31  H    0.120001
    32  H    0.134846
 Sum of Mulliken charges =  -0.00000
 Mulliken charges with hydrogens summed into heavy atoms:
               1
     1  C   -0.479386
     2  C    0.459770
     3  O   -0.552757
     4  C    0.332138
     5  C    0.156165
     9  N    0.216297
    12  C    0.059944
    16  C    0.164392
    17  C   -0.074148
    18  C   -0.001079
    19  C   -0.001178
    20  C   -0.028880
    21  C   -0.120145
    28  O   -0.318486
    29  C    0.187354
 APT charges:
               1
     1  C   -0.914311
     2  C    0.122360
     3  O   -0.452084
     4  C    0.268403
     5  C   -1.286178
     6  H    0.594249
     7  H    0.548997
     8  H    0.203221
     9  N   -0.485156
    10  H    0.600096
    11  H    0.280558
    12  C   -1.354736
    13  H    0.405947
    14  H    0.470676
    15  H    0.426859
    16  C   -0.132435
    17  C   -0.471743
    18  C   -0.571229
    19  C   -0.614028
    20  C   -0.675813
    21  C   -0.634486
    22  H    0.256072
    23  H    0.647396
    24  H    0.927779
    25  H    0.812469
    26  H    0.442540
    27  H    0.504787
    28  O   -0.085015
    29  C   -1.229590
    30  H    0.250761
    31  H    0.312891
    32  H    0.830741
 Sum of APT charges =  -0.00000
 APT charges with hydrogens summed into heavy atoms:
               1
     1  C   -0.409524
     2  C    0.122360
     3  O   -0.452084
     4  C    0.268403
     5  C    0.060289
     9  N    0.395498
    12  C   -0.051253
    16  C   -0.132435
    17  C   -0.215671
    18  C    0.076167
    19  C    0.313750
    20  C    0.136657
    21  C   -0.191946
    28  O   -0.085015
    29  C    0.164803
 Electronic spatial extent (au):  <R**2>=           3464.4961
 Charge=              0.0000 electrons
 Dipole moment (field-independent basis, Debye):
    X=             -2.1966    Y=              5.5132    Z=             -1.4282  Tot=              6.1041
 Quadrupole moment (field-independent basis, Debye-Ang):
   XX=            -83.5677   YY=            -74.1270   ZZ=            -92.9321
   XY=              0.2709   XZ=              0.6377   YZ=             -5.7055
 Traceless Quadrupole moment (field-independent basis, Debye-Ang):
   XX=             -0.0254   YY=              9.4153   ZZ=             -9.3898
   XY=              0.2709   XZ=              0.6377   YZ=             -5.7055
 Octapole moment (field-independent basis, Debye-Ang**2):
  XXX=             15.3328  YYY=             19.0262  ZZZ=             -9.2760  XYY=              5.5793
  XXY=            -11.7874  XXZ=            -27.2978  XZZ=              5.9466  YZZ=             18.9326
  YYZ=             -8.3401  XYZ=              0.9639
 Hexadecapole moment (field-independent basis, Debye-Ang**3):
 XXXX=          -2512.8524 YYYY=          -1271.3927 ZZZZ=           -474.2881 XXXY=            -60.0148
 XXXZ=             33.2549 YYYX=             -4.4043 YYYZ=            -40.3577 ZZZX=             -8.3768
 ZZZY=            -17.3077 XXYY=           -606.2556 XXZZ=           -560.3650 YYZZ=           -306.8312
 XXYZ=              2.6475 YYXZ=             -1.4395 ZZXY=             -2.4731
 N-N= 1.025268300814D+03 E-N=-3.619092973038D+03  KE= 6.694642454209D+02
  Exact polarizability:   0.000   0.000   0.000   0.000   0.000   0.000
 Approx polarizability: 187.822  -5.351 189.072  16.511  -6.753 154.765
   1 Symmetry operations used in ECPInt.
 ECPInt:  NShTT=   27261 NPrTT=   81384 LenC2=   25317 LenP2D=   56181.
 LDataN:  DoStor=T MaxTD1= 8 Len=  415
 D2PCM: PCM CHGder 2nd derivatives, FixD1E=F FixD2E=F DoIter=F DoCFld=F I1PDM=0
 Calling FoFJK, ICntrl=    100147 FMM=F ISym2X=0 I1Cent= 0 IOpClX= 0 NMat=1 NMatS=1 NMatT=0.
 ***** Axes restored to original set *****
 -------------------------------------------------------------------
 Center     Atomic                   Forces (Hartrees/Bohr)
 Number     Number              X              Y              Z
 -------------------------------------------------------------------
      1        6           0.000004614    0.000005411   -0.000002617
      2        6          -0.000002840   -0.000002356    0.000003036
      3        8           0.000001662   -0.000001565   -0.000007200
      4        6           0.000000400    0.000010652    0.000004066
      5        6           0.000001596   -0.000000634   -0.000000285
      6        1          -0.000002165   -0.000001425    0.000005539
      7        1          -0.000001405   -0.000000845    0.000003640
      8        1          -0.000000462   -0.000002674    0.000001129
      9        7          -0.000000182   -0.000001484   -0.000001419
     10        1          -0.000002583   -0.000003080    0.000002303
     11        1          -0.000000136   -0.000001892    0.000002239
     12        6          -0.000000160   -0.000004793   -0.000000254
     13        1          -0.000001247    0.000003995    0.000002211
     14        1          -0.000001801    0.000003204    0.000002081
     15        1           0.000000348    0.000003522    0.000003626
     16        6          -0.000007042   -0.000012442   -0.000003559
     17        6           0.000007941    0.000003662    0.000000806
     18        6          -0.000002365    0.000004045   -0.000002461
     19        6           0.000003904   -0.000002001   -0.000000435
     20        6          -0.000004698   -0.000000066   -0.000003085
     21        6           0.000004128    0.000003998    0.000003868
     22        1          -0.000003623   -0.000001358   -0.000002322
     23        1           0.000001335   -0.000000027   -0.000003527
     24        1          -0.000001631    0.000002797   -0.000002821
     25        1           0.000002194    0.000001422    0.000001848
     26        1          -0.000000480   -0.000000886    0.000001881
     27        1          -0.000001034    0.000000554    0.000001190
     28        8           0.000005366    0.000002713    0.000000694
     29        6          -0.000005982   -0.000003632   -0.000004236
     30        1           0.000001926   -0.000002714   -0.000003201
     31        1           0.000000758   -0.000001586   -0.000002388
     32        1           0.000003662   -0.000000516   -0.000000346
 -------------------------------------------------------------------
 Cartesian Forces:  Max     0.000012442 RMS     0.000003377
 FormGI is forming the generalized inverse of G from B-inverse, IUseBI=4.

 GradGradGradGradGradGradGradGradGradGradGradGradGradGradGradGradGradGrad
 Berny optimization.
 Internal  Forces:  Max     0.000008296 RMS     0.000001854
 Search for a saddle point.
 Step number   1 out of a maximum of   70
 All quantities printed in internal units (Hartrees-Bohrs-Radians)
 Swapping is turned off.
 Second derivative matrix not updated -- analytic derivatives used.
 ITU=  0
     Eigenvalues ---   -0.03245   0.00176   0.00248   0.00296   0.00364
     Eigenvalues ---    0.00414   0.00953   0.01175   0.01627   0.01665
     Eigenvalues ---    0.01779   0.01842   0.02188   0.02307   0.02439
     Eigenvalues ---    0.02540   0.02624   0.02718   0.02896   0.02988
     Eigenvalues ---    0.03645   0.04342   0.04574   0.04646   0.04889
     Eigenvalues ---    0.05553   0.05785   0.06752   0.07643   0.07748
     Eigenvalues ---    0.08353   0.08552   0.08952   0.10898   0.11393
     Eigenvalues ---    0.11610   0.11880   0.12224   0.12362   0.12730
     Eigenvalues ---    0.12919   0.13232   0.13307   0.14615   0.15075
     Eigenvalues ---    0.16252   0.17666   0.17948   0.18447   0.18688
     Eigenvalues ---    0.18882   0.19222   0.19441   0.19626   0.19741
     Eigenvalues ---    0.21319   0.24601   0.26364   0.29282   0.29780
     Eigenvalues ---    0.30390   0.32186   0.33754   0.33848   0.33988
     Eigenvalues ---    0.34114   0.34187   0.34589   0.34850   0.34893
     Eigenvalues ---    0.35055   0.36178   0.36264   0.36446   0.36541
     Eigenvalues ---    0.36636   0.36955   0.37375   0.38148   0.41187
     Eigenvalues ---    0.42304   0.43216   0.43702   0.45933   0.46188
     Eigenvalues ---    0.47683   0.47937   0.48172   0.51945   0.74463
 Eigenvectors required to have negative eigenvalues:
                          R6        D7        D10       R2        D31
   1                    0.84405  -0.19209  -0.17762  -0.14008   0.10921
                          A20       D5        D32       D22       D29
   1                    0.10348  -0.10203   0.10017  -0.09968   0.09587
 RFO step:  Lambda0=5.976730569D-11 Lambda= 0.00000000D+00.
 Linear search not attempted -- option 19 set.
 Iteration  1 RMS(Cart)=  0.00008766 RMS(Int)=  0.00000000
 Iteration  2 RMS(Cart)=  0.00000001 RMS(Int)=  0.00000000
 Variable       Old X    -DE/DX   Delta X   Delta X   Delta X     New X
                                 (Linear)    (Quad)   (Total)
    R1        2.67148   0.00000   0.00000   0.00001   0.00001   2.67150
    R2        2.66283  -0.00001   0.00000  -0.00001  -0.00001   2.66282
    R3        2.04292  -0.00000   0.00000  -0.00000  -0.00000   2.04292
    R4        2.33198  -0.00000   0.00000  -0.00001  -0.00001   2.33197
    R5        2.57603  -0.00000   0.00000  -0.00001  -0.00001   2.57602
    R6        3.66960  -0.00000   0.00000  -0.00001  -0.00001   3.66959
    R7        2.85912  -0.00000   0.00000  -0.00001  -0.00001   2.85912
    R8        2.85861   0.00000   0.00000   0.00001   0.00001   2.85862
    R9        2.06014   0.00000   0.00000   0.00001   0.00001   2.06015
   R10        2.05624  -0.00000   0.00000  -0.00000  -0.00000   2.05624
   R11        2.06418   0.00000   0.00000   0.00000   0.00000   2.06419
   R12        2.74922  -0.00000   0.00000   0.00000   0.00000   2.74922
   R13        1.91181  -0.00000   0.00000  -0.00000  -0.00000   1.91181
   R14        1.92315   0.00000   0.00000   0.00000   0.00000   1.92315
   R15        2.06298  -0.00000   0.00000  -0.00001  -0.00001   2.06297
   R16        2.05861   0.00000   0.00000   0.00001   0.00001   2.05862
   R17        2.05766   0.00000   0.00000   0.00001   0.00001   2.05767
   R18        2.63088  -0.00000   0.00000  -0.00001  -0.00001   2.63087
   R19        2.63569   0.00000   0.00000   0.00001   0.00001   2.63570
   R20        2.61971  -0.00000   0.00000  -0.00000  -0.00000   2.61970
   R21        2.04305   0.00000   0.00000   0.00001   0.00001   2.04306
   R22        2.62054   0.00000   0.00000   0.00000   0.00000   2.62054
   R23        2.04635   0.00000   0.00000   0.00000   0.00000   2.04635
   R24        2.62075  -0.00000   0.00000   0.00000   0.00000   2.62075
   R25        2.04590  -0.00000   0.00000  -0.00001  -0.00001   2.04589
   R26        2.61931  -0.00000   0.00000  -0.00001  -0.00001   2.61931
   R27        2.04593   0.00000   0.00000   0.00001   0.00001   2.04594
   R28        2.04627  -0.00000   0.00000  -0.00000  -0.00000   2.04626
   R29        2.68021   0.00000   0.00000   0.00001   0.00001   2.68022
   R30        2.06155   0.00000   0.00000   0.00000   0.00000   2.06156
   R31        2.06187  -0.00000   0.00000  -0.00000  -0.00000   2.06187
   R32        2.05566  -0.00000   0.00000  -0.00001  -0.00001   2.05565
    A1        2.13635  -0.00001   0.00000  -0.00003  -0.00003   2.13632
    A2        2.04770   0.00000   0.00000   0.00000   0.00000   2.04770
    A3        2.06828   0.00000   0.00000   0.00003   0.00003   2.06831
    A4        2.21275  -0.00000   0.00000  -0.00001  -0.00001   2.21274
    A5        1.97257   0.00000   0.00000   0.00001   0.00001   1.97258
    A6        2.09693   0.00000   0.00000   0.00001   0.00001   2.09693
    A7        1.82040  -0.00000   0.00000  -0.00001  -0.00001   1.82039
    A8        2.00294   0.00000   0.00000   0.00000   0.00000   2.00294
    A9        2.10976  -0.00000   0.00000  -0.00002  -0.00002   2.10974
   A10        1.77760   0.00000   0.00000   0.00001   0.00001   1.77761
   A11        1.71286   0.00000   0.00000   0.00002   0.00002   1.71287
   A12        1.96875   0.00000   0.00000   0.00001   0.00001   1.96876
   A13        1.90638  -0.00000   0.00000  -0.00000  -0.00000   1.90638
   A14        1.89922   0.00000   0.00000   0.00000   0.00000   1.89922
   A15        1.95202   0.00000   0.00000   0.00001   0.00001   1.95203
   A16        1.90666   0.00000   0.00000   0.00000   0.00000   1.90667
   A17        1.91351   0.00000   0.00000   0.00000   0.00000   1.91351
   A18        1.88549  -0.00000   0.00000  -0.00001  -0.00001   1.88548
   A19        1.95901  -0.00000   0.00000  -0.00003  -0.00003   1.95898
   A20        2.00873   0.00000   0.00000   0.00003   0.00003   2.00876
   A21        1.67785   0.00000   0.00000   0.00002   0.00002   1.67787
   A22        1.95490   0.00000   0.00000  -0.00000  -0.00000   1.95490
   A23        1.94461   0.00000   0.00000   0.00000   0.00000   1.94461
[...]
 0.00009043,0.00011743,0.00022922,0.00002930,0.00002140,0.00001982,0.00
 021741,0.00193809,-0.00005314,-0.00025664,-0.00002740,0.00031246,-0.00
 004655,-0.00078622,0.00004968,0.00032891,0.00015663,0.00021970,-0.0027
 8762,-0.00376431,-0.00204876,0.00006021,-0.00039623,-0.00001621,-0.000
 03260,0.00002922,0.00006188,-0.00005870,0.00005206,-0.00001915,-0.0003
 1411,-0.00032170,-0.00016291,-0.00105382,0.00132687,-0.00005474,0.0001
 9602,-0.00006497,-0.00001046,-0.00003017,0.00005450,-0.00001011,-0.000
 02118,0.00002447,-0.00001320,-0.00014126,0.00007361,-0.00004852,0.0000
 4260,-0.00008379,-0.00003657,0.14750272,0.05124385,-0.08762871,0.10583
 450,0.01984310,-0.00253648,0.00524526,-0.00320281,-0.00025635,0.008619
 04,-0.00610401,0.00752968,-0.00651108,0.00034771,0.00033707,0.00006873
 ,0.00010739,-0.00022748,0.00000146,0.00009530,-0.00000022,0.00008412,-
 0.00001008,-0.00077042,-0.00067663,-0.00226508,-0.00161679,-0.00292355
 ,0.00046394,-0.00028131,-0.00088566,-0.00034670,-0.00051062,0.00012943
 ,-0.00122986,-0.00062153,-0.00245626,0.00026456,0.00012926,-0.00032642
 ,-0.00008660,-0.00045747,-0.00004058,0.00006144,-0.00024821,-0.0000700
 0,-0.00049080,-0.00009923,0.00217810,-0.00001451,0.00017005,-0.0001700
 7,0.00007382,0.00016088,-0.00012088,0.00000133,-0.00000770,0.00004901,
 0.00011092,0.00009769,-0.00017572,-0.00003272,0.00007828,-0.00000238,-
 0.00036358,0.00028308,0.00015247,-0.00000671,0.00000046,-0.00000178,0.
 00000060,0.00000424,0.00003227,0.00000591,0.00000036,-0.00000813,-0.00
 000219,0.00003979,0.00008517,-0.05649613,0.08732497,-0.12942338,0.0959
 1774,-0.18743260,-0.01055749,0.00661439,-0.01684722,0.00253603,0.00453
 111,0.00094916,0.00147370,0.00492384,0.00147555,-0.00045313,0.00055633
 ,-0.00001854,0.00029186,-0.00011850,0.00013228,0.00013851,0.00000565,0
 .00010009,0.00034472,-0.00049157,-0.00046965,-0.00163043,-0.00153880,-
 0.00263224,0.00040143,-0.00030919,-0.00063683,-0.00007874,-0.00001898,
 0.00031848,0.00142976,-0.00015010,-0.00083137,-0.00000681,-0.00020113,
 -0.00023141,0.00020755,-0.00058822,0.00051049,0.00031618,-0.00041053,-
 0.00005547,0.00138584,0.00024470,0.00215656,-0.00012900,0.00018760,-0.
 00013838,0.00011186,0.00009094,-0.00005406,-0.00006817,-0.00004568,-0.
 00001599,0.00006441,0.00014147,-0.00009504,0.00034311,-0.00011051,0.00
 015869,-0.00013986,0.00003501,0.00004337,-0.00002006,0.00001958,0.0000
 0238,-0.00001442,0.00000193,0.00001755,0.00001428,-0.00000281,-0.00001
 413,-0.00000709,-0.00001426,0.00006596,0.13436986,-0.10651545,0.203441
 83,-0.05455611,-0.03807379,0.00187508,-0.16987229,-0.04114842,-0.04351
 873,-0.03957232,-0.00966866,-0.06285154,0.01599313,0.00906496,0.014981
 02,-0.00249097,0.00140612,-0.00166428,0.00075458,-0.00053453,-0.000026
 42,0.00007401,-0.00039522,0.00004965,-0.00005889,0.00071284,0.00092430
 ,-0.00298174,-0.00841365,-0.00858099,0.00106353,-0.00120221,-0.0013148
 2,0.00092878,0.00227521,0.00183920,-0.00194504,0.00035455,0.00035717,-
 0.00052989,-0.00063445,0.00028101,-0.00004040,-0.00000403,-0.00023550,
 -0.00030732,-0.00085445,0.00015205,0.00083075,-0.00244542,-0.00186236,
 -0.00106629,0.00024979,0.00002619,0.00038515,-0.00008577,0.00003617,-0
 .00067146,-0.00008627,-0.00034859,-0.00054529,0.00037027,-0.00004289,0
 .00000637,0.00088080,-0.00001746,0.00026641,-0.00052186,-0.00005839,-0
 .00009394,0.00020748,-0.00001882,-0.00013310,0.00005756,-0.00000640,-0
 .00025519,0.00004994,-0.00005181,0.00024529,-0.00007343,0.00001510,0.0
 0054952,-0.00254262,-0.00162540,0.38567510,-0.05186434,-0.01693334,-0.
 00007647,-0.05556794,-0.09605536,0.00094646,-0.00392015,0.02480523,-0.
 00653849,0.00803336,0.00775222,0.01360284,-0.00099315,0.00103292,-0.00
 083700,0.00047073,-0.00037197,-0.00004002,0.00003629,-0.00017307,0.000
 05597,-0.00010786,0.00035542,0.00055967,-0.00123759,-0.00422082,-0.005
 72631,0.00074217,-0.00031274,-0.00095414,-0.00015883,-0.00020851,0.000
 69696,-0.00144898,-0.00032158,-0.00066871,-0.00023266,-0.00026922,0.00
 006474,0.00002438,-0.00006837,-0.00006542,-0.00019203,-0.00080318,0.00
 016383,0.00072740,-0.00172135,-0.00078848,-0.00080748,0.00028953,-0.00
 006102,0.00006874,-0.00002603,-0.00006862,-0.00034259,0.00005252,-0.00
 015128,-0.00027897,0.00007297,-0.00006588,-0.00025434,0.00058929,-0.00
 007553,-0.00010389,-0.00041657,-0.00006566,-0.00006819,0.00013159,-0.0
 0001138,-0.00008991,0.00003239,0.00000057,-0.00015524,0.00003507,-0.00
 004342,0.00014681,-0.00005536,0.00002443,0.00015937,-0.00106385,-0.002
 29950,0.17877461,0.22450419,0.01622526,0.00843161,0.01642420,-0.017209
 64,0.01591749,-0.11803954,-0.06658347,-0.00978584,-0.04021935,0.002048
 51,0.00495798,-0.00174823,-0.00030358,0.00019453,0.00004013,0.00005630
 ,0.00001667,-0.00000413,0.00009799,-0.00007234,0.00002548,0.00005624,-
 0.00004173,0.00005206,-0.00028438,-0.00084083,-0.00013851,0.00003372,-
 0.00010668,0.00014006,0.00049008,0.00174638,0.00025803,0.00103547,0.00
 020546,0.00041639,0.00001996,-0.00001373,-0.00007788,-0.00006286,-0.00
 007770,0.00002815,0.00021130,0.00023893,-0.00027550,-0.00033614,0.0001
 1586,0.00007768,-0.00024998,-0.00003869,0.00013785,0.00015710,-0.00008
 165,0.00013732,-0.00006917,-0.00012328,-0.00008351,-0.00008773,0.00015
 371,-0.00002167,0.00029200,-0.00008720,0.00020071,-0.00016237,-0.00001
 371,-0.00012837,0.00000388,0.00000743,-0.00000161,-0.00000705,0.000001
 40,-0.00000979,0.00000397,-0.00000514,-0.00000457,0.00000480,-0.000001
 02,-0.00002492,0.00160398,-0.00087538,0.00028452,0.01395666,-0.1036600
 4,0.31407296,0.00281410,0.00248932,-0.00533305,-0.04527868,-0.03407180
 ,0.02027145,0.00343663,0.00110843,0.00813983,-0.00206595,-0.00364098,-
 0.00218014,0.00034644,-0.00027838,0.00020637,-0.00012576,0.00009005,0.
 00002036,-0.00001448,0.00007221,-0.00000609,0.00002635,-0.00013791,-0.
 00014771,0.00043175,0.00142375,0.00149963,-0.00017375,0.00015843,0.000
 19796,-0.00019103,-0.00045527,-0.00027179,-0.00007691,-0.00005552,-0.0
 0003771,0.00005467,0.00006960,-0.00000866,0.00001297,0.00001595,0.0000
 1554,-0.00000891,0.00010818,0.00006572,0.00004144,0.00052261,0.0003078
 1,0.00012216,-0.00006087,-0.00003254,-0.00003910,0.00003458,-0.0000230
 9,0.00010229,0.00001499,0.00006444,0.00010401,-0.00004864,0.00001011,-
 0.00000051,-0.00015182,0.00001099,-0.00005473,0.00009003,0.00004161,0.
 00001421,-0.00003313,0.00000262,0.00002399,-0.00000937,0.00000431,0.00
 004390,-0.00000826,0.00000866,-0.00003451,0.00001475,-0.00000014,0.000
 15272,0.00066114,0.00093778,-0.10920357,-0.03886407,0.02545386,0.57362
 955,0.00342581,0.00616596,-0.00116835,-0.03076008,-0.02203156,0.002789
 88,0.00731180,-0.00225969,0.00536898,-0.00355292,-0.00166675,-0.001968
 89,0.00046273,-0.00032571,0.00028667,-0.00015976,0.00011697,0.00001340
 ,-0.00001223,0.00008158,-0.00000863,0.00002165,-0.00013980,-0.00017858
 ,0.00078918,0.00193327,0.00197747,-0.00025057,0.00025040,0.00034608,-0
 .00015463,-0.00037157,-0.00037228,0.00025862,-0.00019099,-0.00036368,0
 .00012764,0.00017486,-0.00007561,0.00001910,-0.00001359,0.00005927,0.0
 0005894,0.00008371,0.00001515,-0.00021531,0.00039107,0.00035464,0.0002
 1662,-0.00013797,-0.00001726,-0.00007052,0.00005301,-0.00000412,0.0001
 5157,0.00001872,0.00008514,0.00011086,-0.00009772,0.00000183,-0.000033
 12,-0.00013169,-0.00001182,-0.00008351,0.00014823,0.00002353,0.0000184
 6,-0.00004337,0.00000191,0.00003128,-0.00000924,0.00000065,0.00004726,
 -0.00000731,0.00001029,-0.00004641,0.00001358,-0.00000143,0.00019472,0
 .00035463,-0.00022691,-0.04707239,-0.11462510,0.05316230,-0.03123709,0
 .54509755,-0.00778182,-0.00268336,0.00072531,0.01278015,-0.00169538,0.
 01834774,-0.00639899,-0.00216289,-0.00751492,0.00196823,0.00174447,0.0
 0343666,-0.00034737,0.00029141,-0.00021023,0.00012159,-0.00009957,-0.0
 0003420,0.00001180,-0.00007284,0.00000554,-0.00004678,0.00016257,0.000
 14719,-0.00042977,-0.00124372,-0.00129771,0.00017374,-0.00016960,-0.00
 019538,0.00019639,0.00040212,0.00033189,-0.00045782,-0.00012137,-0.000
 21510,-0.00005752,-0.00005890,0.00002517,0.00001398,0.00000234,-0.0000
 2919,-0.00007595,-0.00023908,0.00005665,0.00015465,-0.00050922,-0.0002
 6550,-0.00016679,0.00008699,0.00005386,0.00003497,-0.00003734,0.000006
 09,-0.00011598,-0.00000035,-0.00006707,-0.00010715,0.00004170,-0.00002
 095,-0.00002543,0.00017807,-0.00002247,0.00007390,-0.00013752,-0.00006
 742,-0.00002190,0.00004139,-0.00000014,-0.00002952,0.00001045,-0.00000
 505,-0.00005050,0.00000981,-0.00001130,0.00004056,-0.00001905,0.000005
 35,0.00004289,-0.00076573,-0.00040814,0.04587025,0.06497690,-0.1484938
 7,0.05775216,0.04755962,0.54972158,-0.00127243,-0.00003493,0.00069608,
 0.00277827,-0.00059053,0.00045891,-0.00093083,-0.00080517,-0.00048111,
 0.00031489,0.00055819,0.00062850,-0.00003983,0.00004349,-0.00003906,0.
 00002109,-0.00001372,-0.00000058,-0.00000048,-0.00000642,0.00000143,-0
 .00000339,0.00001691,0.00002575,0.00001431,-0.00016511,-0.00029454,0.0
 0002929,0.00000821,-0.00002803,-0.00003041,-0.00003415,0.00000036,-0.0
 0001565,-0.00000809,-0.00002913,-0.00000900,-0.00001247,-0.00000127,-0
 .00000068,-0.00000656,-0.00000069,-0.00000043,-0.00003366,-0.00000482,
 0.00002880,-0.00008661,-0.00003371,-0.00002399,0.00000897,-0.00001407,
 0.00000042,0.00000281,-0.00000175,-0.00000856,0.00000452,-0.00000522,-
 0.00000964,-0.00000184,-0.00000129,-0.00001623,0.00002621,-0.00000324,
 -0.00000199,-0.00000794,0.00000020,-0.00000184,0.00000496,-0.00000137,
 -0.00000285,0.00000121,0.00000042,-0.00000594,0.00000177,-0.00000218,0
 .00000584,-0.00000195,0.00000137,0.00007252,-0.00002538,-0.00015541,0.
 01020225,-0.02376146,0.00728695,-0.12652237,0.12110233,-0.02928343,0.1
 2929602,-0.00161671,-0.00081029,0.00023427,0.00660973,0.00174111,0.004
 14520,-0.00038095,0.00112397,-0.00250652,0.00058448,0.00070575,0.00080
 521,-0.00007494,0.00005168,-0.00007005,0.00003082,-0.00002500,0.000001
 75,-0.00000558,-0.00001354,-0.00000034,-0.00000837,0.00003952,0.000034
 63,-0.00009388,-0.00032460,-0.00041001,0.00004648,-0.00004222,-0.00007
 585,-0.00000363,-0.00001647,0.00003976,-0.00006631,-0.00000572,-0.0000
 2321,-0.00001785,-0.00001756,0.00000702,-0.00000141,0.00000088,-0.0000
 0816,-0.00001127,-0.00004678,0.00000499,0.00000683,-0.00014865,-0.0000
 9003,-0.00002525,0.00001065,-0.00001118,0.00000957,-0.00000099,-0.0000
 0068,-0.00002504,0.00000081,-0.00001355,-0.00002326,0.00000707,-0.0000
 0049,-0.00001303,0.00004976,-0.00001586,0.00002003,-0.00002099,0.00000
 423,-0.00000524,0.00000901,-0.00000043,-0.00000520,0.00000247,-0.00000
 003,-0.00001178,0.00000308,-0.00000185,0.00000959,-0.00000311,0.000002
 46,0.00005155,-0.00010651,-0.00025132,-0.00394892,-0.02240111,0.012636
 51,0.11459557,-0.22738861,0.04197375,-0.12204716,0.25099910,0.00115956
 ,0.00046965,-0.00042074,-0.00464139,-0.00190161,-0.00113440,0.00091251
 ,0.00002399,0.00096007,-0.00043919,-0.00058484,-0.00058904,0.00007012,
 -0.00006014,0.00004470,-0.00002485,0.00002109,0.00000728,-0.00000343,0
 .00001485,-0.00000160,0.00000848,-0.00003434,-0.00003477,0.00009325,0.
 00028181,0.00029009,-0.00003662,0.00003894,0.00004513,-0.00003564,-0.0
 0008418,-0.00007047,0.00005455,0.00000961,0.00003018,0.00001253,0.0000
 1196,-0.00000520,0.00000050,-0.00000016,0.00000555,0.00001076,0.000040
 19,-0.00000383,-0.00000839,0.00011406,0.00006790,0.00004632,-0.0000210
 5,-0.00000045,-0.00001470,0.00000966,-0.00000564,0.00002809,0.00000421
 ,0.00001604,0.00002537,-0.00001466,0.00000386,0.00000281,-0.00004196,-
 0.00000219,-0.00001380,0.00002746,0.00000642,0.00000442,-0.00000896,0.
 00000136,0.00000587,-0.00000207,0.00000078,0.00001066,-0.00000230,0.00
 000248,-0.00000969,0.00000366,-0.00000005,-0.00003264,0.00012297,0.000
 19079,-0.00272160,0.02680896,-0.00981436,-0.02686668,0.04048908,-0.060
 30500,0.02719759,-0.05672385,0.06582611,-0.00105068,-0.00116351,-0.000
 07096,0.00397642,0.00199014,0.00397412,-0.00070281,0.00041111,-0.00177
 521,0.00065978,0.00043450,0.00053187,-0.00007484,0.00005283,-0.0000699
 0,0.00003024,-0.00002341,0.00000121,0.00000125,-0.00000753,0.00000166,
 0.00000049,0.00002274,0.00003934,-0.00012185,-0.00035176,-0.00042976,0
 .00004820,-0.00004330,-0.00008179,-0.00002223,-0.00004649,0.00003799,-
 0.00004835,0.00002973,0.00005503,-0.00002388,-0.00002907,0.00001230,-0
 .00000655,-0.00000013,-0.00001018,-0.00000741,-0.00001945,-0.00000079,
 0.00004406,-0.00007057,-0.00008826,-0.00002490,0.00001810,-0.00001607,
 0.00000336,0.00000108,-0.00001478,-0.00001963,0.00000639,-0.00000513,-
 0.00000856,0.00000670,0.00000189,-0.00001435,0.00002351,-0.00000595,0.
 00000737,-0.00001509,0.00001298,-0.00000256,0.00000555,-0.00000075,-0.
 00000419,0.00000118,0.00000156,-0.00000759,0.00000124,-0.00000097,0.00
 000863,-0.00000172,0.00000070,0.00003699,0.00000498,-0.00004195,-0.010
 51706,0.00215356,0.02097057,-0.05998131,0.02679666,0.04099980,-0.00248
 979,0.00996747,0.01378695,0.06216180,-0.00032393,-0.00107279,-0.000029
 80,0.00160711,0.00248800,0.00077037,-0.00139002,-0.00067309,0.00022348
 ,0.00053505,0.00026323,0.00028125,-0.00008746,0.00003275,-0.00006998,0
 .00002436,-0.00001717,0.00000686,-0.00000098,-0.00001174,-0.00000026,0
 .00001161,0.00002724,0.00002533,-0.00009283,-0.00029918,-0.00031368,0.
 00003348,-0.00004532,-0.00004673,0.00001674,0.00004389,0.00006632,-0.0
 0003870,0.00003121,0.00005840,-0.00002124,-0.00002600,0.00001362,-0.00
 000552,0.00000135,-0.00000887,-0.00000813,-0.00001160,-0.00000149,0.00
 002774,-0.00005184,-0.00006394,-0.00003529,0.00001919,-0.00000555,0.00
 002391,-0.00000786,0.00000559,-0.00002909,-0.00001073,-0.00001591,-0.0
 0001960,0.00002542,0.00000238,0.00001736,0.00001841,0.00000252,0.00001
 886,-0.00001707,0.00000531,-0.00000248,0.00000621,-0.00000085,-0.00000
 372,0.00000128,0.00000002,-0.00000708,0.00000109,-0.00000072,0.0000069
 5,-0.00000160,0.00000058,0.00003602,-0.00003091,0.00004404,-0.01050230
 ,0.01109606,0.02490465,0.03034841,-0.12356490,-0.11778412,0.00431489,-
 0.01184364,-0.02228847,-0.02658170,0.12609338,0.00168476,0.00097370,-0
 .00008782,-0.00670448,-0.00231312,-0.00272399,0.00020762,-0.00047510,0
 .00223887,-0.00085631,-0.00051269,-0.00072167,0.00011032,-0.00009443,0
 .00007112,-0.00004148,0.00003001,0.00000852,-0.00000457,0.00001778,-0.
 00000286,0.00000737,-0.00003767,-0.00005066,0.00016732,0.00044546,0.00
 050933,-0.00006634,0.00004662,0.00008734,-0.00001440,-0.00004082,-0.00
 007350,0.00008559,-0.00001848,-0.00002426,0.00002498,0.00003653,-0.000
 01167,-0.00000156,-0.00000111,0.00001062,0.00001628,0.00004120,-0.0000
 0125,-0.00005526,0.00012032,0.00006503,0.00003408,-0.00002407,0.000000
 29,0.00000309,0.00000542,0.00001038,0.00002441,-0.00000985,0.00001077,
 0.00001836,-0.00000277,0.00000320,0.00002085,-0.00004016,0.00000656,-0
 .00001024,0.00003500,0.00000435,0.00000486,-0.00001018,0.00000092,0.00
 000761,-0.00000252,-0.00000014,0.00001184,-0.00000240,0.00000399,-0.00
 001108,0.00000395,-0.00000197,-0.00000620,-0.00005239,0.00003306,0.015
 85765,0.00251743,-0.02297502,0.04472945,-0.11286223,-0.23046266,-0.002
 53910,0.00261903,0.00693576,-0.05593450,0.11791407,0.25754181,-0.00163
 439,-0.00076774,-0.00023803,0.00275451,0.00030760,0.00332447,-0.000122
 87,-0.00031716,-0.00031898,0.00060623,0.00026365,0.00077995,-0.0000923
 0,0.00006889,-0.00006192,0.00003229,-0.00002458,-0.00000446,0.00000086
 ,-0.00001771,0.00000137,-0.00000695,0.00003642,0.00003590,-0.00010168,
 -0.00033017,-0.00037008,0.00004542,-0.00003794,-0.00004978,0.00004030,
 0.00007517,0.00008227,-0.00012851,-0.00000238,-0.00001730,-0.00002300,
 -0.00002752,0.00001501,0.00000221,0.00000155,-0.00000994,-0.00002078,-
 0.00005140,0.00001741,0.00006227,-0.00010817,-0.00006364,-0.00004521,0
 .00003319,0.00000707,0.00001161,-0.00001164,0.00000075,-0.00003282,-0.
 00000136,-0.00001787,-0.00002593,0.00001581,-0.00000303,-0.00000254,0.
 00003918,-0.00000254,0.00001925,-0.00003703,-0.00001537,-0.00000452,0.
 00001051,-0.00000073,-0.00000755,0.00000245,-0.00000082,-0.00001225,0.
 00000204,-0.00000292,0.00001068,-0.00000456,0.00000135,0.00002339,-0.0
 0006619,-0.00001552,-0.02213402,-0.01088773,-0.00465225,-0.23758562,-0
 .04749670,-0.11483833,-0.01137737,-0.00354635,-0.00858169,0.00814997,0
 .00212756,0.00322906,0.26159934,-0.00147388,-0.00037162,-0.00038291,0.
 00114310,-0.00082427,0.00448045,0.00036267,0.00109520,-0.00084898,0.00
 036396,0.00013821,0.00063465,-0.00005274,0.00003838,-0.00004382,0.0000
 2012,-0.00001695,-0.00000207,-0.00000202,-0.00000982,0.00000057,-0.000
 00507,0.00002681,0.00002385,-0.00005430,-0.00019405,-0.00023618,0.0000
 2983,-0.00002254,-0.00004012,0.00000983,0.00001058,0.00003364,-0.00010
 565,-0.00002695,-0.00005273,-0.00001189,-0.00001088,0.00000662,0.00000
 265,0.00000059,-0.00000525,-0.00001695,-0.00004674,0.00001910,0.000050
 02,-0.00007040,-0.00003753,-0.00003232,0.00002196,0.00000129,0.0000063
 6,-0.00000531,-0.00000082,-0.00002076,-0.00000033,-0.00001043,-0.00001
 636,0.00000899,-0.00000301,-0.00000443,0.00002747,-0.00000334,0.000010
 52,-0.00002456,-0.00000697,-0.00000379,0.00000688,0.00000002,-0.000004
 74,0.00000155,-0.00000035,-0.00000807,0.00000150,-0.00000164,0.0000069
 6,-0.00000304,0.00000142,0.00004037,-0.00004663,-0.00002085,-0.0261957
 6,-0.01070188,-0.00686593,-0.04276493,-0.06187800,-0.02968152,0.021548
 69,0.00847095,0.01327645,-0.01357375,-0.00246324,-0.00830651,0.0607523
 2,0.06686812,0.00099037,0.00022282,0.00069422,0.00011961,0.00260426,-0
 .00544418,-0.00155815,-0.00167100,0.00213312,-0.00006288,0.00016975,-0
 .00033033,0.00000610,-0.00000337,0.00001706,-0.00000425,0.00000632,-0.
 00000038,0.00000324,-0.00000030,0.00000057,0.00000375,-0.00000745,-0.0
 0000608,0.00000714,0.00002639,0.00006294,-0.00000738,0.00000378,0.0000
 1947,0.00001866,0.00005546,0.00001221,0.00008748,0.00002225,0.00003181
 ,0.00000426,0.00000314,-0.00000394,-0.00000326,-0.00000338,0.00000351,
 0.00001432,0.00002548,-0.00001808,-0.00003507,0.00001803,0.00001209,0.
 00000160,-0.00000378,0.00000707,0.00001027,-0.00000470,0.00001048,-0.0
 0000077,-0.00001006,-0.00000351,-0.00000343,0.00000980,-0.00000003,0.0
 0002099,-0.00000907,0.00000868,-0.00000426,0.00000651,-0.00000432,0.00
 000150,-0.00000159,-0.00000002,0.00000102,-0.00000023,-0.00000080,0.00
 000188,-0.00000061,0.00000066,-0.00000200,0.00000044,-0.00000124,-0.00
 001416,-0.00002446,0.00000034,0.02872448,0.01177859,0.00976528,-0.1248
 3307,-0.03528611,-0.12323675,-0.00337756,-0.00230540,-0.00204674,-0.02
 188101,-0.00369440,-0.01040446,0.12177058,0.02807289,0.12872137\\-0.00
 000469,-0.00000550,0.00000263,0.00000289,0.00000242,-0.00000307,-0.000
 00168,0.00000155,0.00000721,-0.00000032,-0.00001058,-0.00000398,-0.000
 00156,0.00000060,0.00000027,0.00000216,0.00000143,-0.00000554,0.000001
 40,0.00000084,-0.00000364,0.00000046,0.00000268,-0.00000112,0.00000018
 ,0.00000147,0.00000142,0.00000255,0.00000306,-0.00000233,0.00000014,0.
 00000192,-0.00000226,0.00000016,0.00000480,0.00000025,0.00000124,-0.00
 000400,-0.00000221,0.00000179,-0.00000320,-0.00000208,-0.00000035,-0.0
 0000353,-0.00000362,0.00000701,0.00001249,0.00000353,-0.00000795,-0.00
 000364,-0.00000081,0.00000244,-0.00000407,0.00000249,-0.00000389,0.000
 00202,0.00000044,0.00000473,0.00000003,0.00000309,-0.00000412,-0.00000
 402,-0.00000387,0.00000359,0.00000134,0.00000231,-0.00000135,0.0000000
 2,0.00000352,0.00000160,-0.00000278,0.00000281,-0.00000222,-0.00000143
 ,-0.00000186,0.00000048,0.00000090,-0.00000188,0.00000103,-0.00000055,
 -0.00000120,-0.00000536,-0.00000270,-0.00000072,0.00000595,0.00000360,
 0.00000427,-0.00000192,0.00000271,0.00000320,-0.00000076,0.00000159,0.
 00000239,-0.00000367,0.00000052,0.00000034\\\@


 WERE I TO AWAIT PERFECTION, MY BOOK WOULD NEVER BE FINISHED.
                                    -- HISTORY OF CHINESE WRITING

                                       TAI T'UNG, 13TH CENTURY
 Job cpu time:       0 days 17 hours 15 minutes 40.7 seconds.
 Elapsed time:       0 days  1 hours  4 minutes 47.0 seconds.
 File lengths (MBytes):  RWF=    991 Int=      0 D2E=      0 Chk=     33 Scr=      1
 Normal termination of Gaussian 16 at Sun Feb 14 12:52:58 2021.
