 Entering Gaussian System, Link 0=g16
 Initial command:
 /apps/gaussian/16/A.03/g16/l1.exe "/beegfs/scratch/user/q/tla25/Gau-87444.inp" -scrdir="/beegfs/scratch/user/q/tla25/"
 Entering Link 1 = /apps/gaussian/16/A.03/g16/l1.exe PID=     87445.
  
 Copyright (c) 1988,1990,1992,1993,1995,1998,2003,2009,2016,
            Gaussian, Inc.  All Rights Reserved.
  
 This is part of the Gaussian(R) 16 program.  It is based on
 the Gaussian(R) 09 system (copyright 2009, Gaussian, Inc.),
 the Gaussian(R) 03 system (copyright 2003, Gaussian, Inc.),
 the Gaussian(R) 98 system (copyright 1998, Gaussian, Inc.),
 the Gaussian(R) 94 system (copyright 1995, Gaussian, Inc.),
 the Gaussian 92(TM) system (copyright 1992, Gaussian, Inc.),
 the Gaussian 90(TM) system (copyright 1990, Gaussian, Inc.),
 the Gaussian 88(TM) system (copyright 1988, Gaussian, Inc.),
 the Gaussian 86(TM) system (copyright 1986, Carnegie Mellon
 University), and the Gaussian 82(TM) system (copyright 1983,
 Carnegie Mellon University). Gaussian is a federally registered
 trademark of Gaussian, Inc.
  
 This software contains proprietary and confidential information,
 including trade secrets, belonging to Gaussian, Inc.
  
 This software is provided under written license and may be
 used, copied, transmitted, or stored only in accord with that
 written license.
  
 The following legend is applicable only to US Government
 contracts under FAR:
  
                    RESTRICTED RIGHTS LEGEND
  
 Use, reproduction and disclosure by the US Government is
 subject to restrictions as set forth in subparagraphs (a)
 and (c) of the Commercial Computer Software - Restricted
 Rights clause in FAR 52.227-19.
  
 Gaussian, Inc.
 340 Quinnipiac St., Bldg. 40, Wallingford CT 06492
  
  
 ---------------------------------------------------------------
 Warning -- This program may not be used in any manner that
 competes with the business of Gaussian, Inc. or will provide
 assistance to any competitor of Gaussian, Inc.  The licensee
 of this program is prohibited from giving any competitor of
 Gaussian, Inc. access to this program.  By using this program,
 the user acknowledges that Gaussian, Inc. is engaged in the
 business of creating and licensing software in the field of
 computational chemistry and represents and warrants to the
 licensee that it is not a competitor of Gaussian, Inc. and that
 it will not use this program in any manner prohibited above.
 ---------------------------------------------------------------
  

 Cite this work as:
 Gaussian 16, Revision A.03,
 M. J. Frisch, G. W. Trucks, H. B. Schlegel, G. E. Scuseria, 
 M. A. Robb, J. R. Cheeseman, G. Scalmani, V. Barone, 
 G. A. Petersson, H. Nakatsuji, X. Li, M. Caricato, A. V. Marenich, 
 J. Bloino, B. G. Janesko, R. Gomperts, B. Mennucci, H. P. Hratchian, 
 J. V. Ortiz, A. F. Izmaylov, J. L. Sonnenberg, D. Williams-Young, 
 F. Ding, F. Lipparini, F. Egidi, J. Goings, B. Peng, A. Petrone, 
 T. Henderson, D. Ranasinghe, V. G. Zakrzewski, J. Gao, N. Rega, 
 G. Zheng, W. Liang, M. Hada, M. Ehara, K. Toyota, R. Fukuda, 
 J. Hasegawa, M. Ishida, T. Nakajima, Y. Honda, O. Kitao, H. Nakai, 
 T. Vreven, K. Throssell, J. A. Montgomery, Jr., J. E. Peralta, 
 F. Ogliaro, M. J. Bearpark, J. J. Heyd, E. N. Brothers, K. N. Kudin, 
 V. N. Staroverov, T. A. Keith, R. Kobayashi, J. Normand, 
 K. Raghavachari, A. P. Rendell, J. C. Burant, S. S. Iyengar, 
 J. Tomasi, M. Cossi, J. M. Millam, M. Klene, C. Adamo, R. Cammi, 
 J. W. Ochterski, R. L. Martin, K. Morokuma, O. Farkas, 
 J. B. Foresman, and D. J. Fox, Gaussian, Inc., Wallingford CT, 2016.
 
 ******************************************
 Gaussian 16:  ES64L-G16RevA.03 25-Dec-2016
                15-Feb-2021 
 ******************************************
 %nprocshared=16
 Will use up to   16 processors via shared memory.
 %mem=48GB
 ----------------------------------------------------------------------
 # wB97XD def2tzvp, opt=(ts, noeigen, calcfc, maxcycles=70, maxstep=1),
  freq=noraman, scrf=(iefpcm, solvent=water)
 ----------------------------------------------------------------------
 1/5=1,6=70,8=1,10=4,11=1,18=20,26=3,38=1/1,3;
 2/9=110,12=2,17=6,18=5,40=1/2;
 3/5=44,7=101,11=2,25=1,30=1,70=2201,71=2,72=1,74=-58,140=1/1,2,3;
 4//1;
 5/5=2,38=5,53=1/2;
 8/6=4,10=90,11=11/1;
 11/6=1,8=1,9=11,15=111,16=1/1,2,10;
 10/6=1,13=1/2;
 6/7=2,8=2,9=2,10=2,28=1/1;
 7/10=1,18=20,25=1/1,2,3,16;
 1/5=1,6=70,8=1,10=4,11=1,18=20,26=3/3(2);
 2/9=110/2;
 99//99;
 2/9=110/2;
 3/5=44,7=101,11=2,25=1,30=1,70=2205,71=1,72=1,74=-58/1,2,3;
 4/5=5,16=3,69=1/1;
 5/5=2,38=5,53=1/2;
 7//1,2,3,16;
 1/5=1,6=70,8=1,11=1,18=20,26=3/3(-5);
 2/9=110/2;
 6/7=2,8=2,9=2,10=2,19=2,28=1/1;
 99/9=1/99;
 ------------------------
 4_iteration/TS-440-4.out
 ------------------------
 Symbolic Z-matrix:
 Charge =  0 Multiplicity = 1
 C                     0.07495   0.67311   0.51541 
 C                     0.7741   -0.06177  -0.48576 
 O                     0.21362  -0.42627  -1.53297 
 C                    -1.31815   0.86174   0.46991 
 C                    -0.71087   3.01688  -1.39764 
 H                    -1.10843   3.83874  -0.80469 
 H                     0.27465   2.74914  -1.01511 
 H                    -0.60206   3.34587  -2.43254 
 N                    -1.58626   1.86121  -1.28359 
 H                    -1.2706    1.0997   -1.87795 
 H                    -2.54398   2.09265  -1.5098 
 C                    -1.95379   1.84036   1.42081 
 H                    -1.44025   2.79921   1.41623 
 H                    -3.00337   1.98879   1.17625 
 H                    -1.89835   1.43356   2.4332 
 C                    -2.19244  -0.33456   0.186 
 C                    -3.48314  -0.2023   -0.32259 
 C                    -4.30357  -1.30676  -0.48871 
 C                    -3.85649  -2.56925  -0.12954 
 C                    -2.58543  -2.71164   0.40601 
 C                    -1.76627  -1.60571   0.56573 
 H                    -3.87297   0.77027  -0.59119 
 H                    -5.2984   -1.17597  -0.89504 
 H                    -4.49747  -3.43239  -0.25594 
 H                    -2.22768  -3.68826   0.7068 
 H                    -0.78246  -1.72565   0.99864 
 Cl                    1.02197   1.65812   1.63428 
 C                     2.22278  -0.41029  -0.31178 
 C                     3.10166  -0.19736  -1.3685 
 C                     4.43262  -0.57018  -1.26003 
 C                     4.88922  -1.18414  -0.1018 
 C                     4.01232  -1.4164    0.94921 
 C                     2.68739  -1.02115   0.84865 
 H                     2.73568   0.26545  -2.27657 
 H                     5.11327  -0.38707  -2.0819 
 H                     5.92632  -1.48397  -0.01912 
 H                     4.362    -1.90442   1.85022 
 H                     2.00616  -1.19548   1.67237 
 
 Add virtual bond connecting atoms N9         and C4         Dist= 3.85D+00.
 Add virtual bond connecting atoms H10        and O3         Dist= 4.08D+00.
 Add virtual bond connecting atoms H11        and H22        Dist= 3.95D+00.

 GradGradGradGradGradGradGradGradGradGradGradGradGradGradGradGradGradGrad
 Berny optimization.
 Initialization pass.
                           ----------------------------
                           !    Initial Parameters    !
                           ! (Angstroms and Degrees)  !
 --------------------------                            --------------------------
 ! Name  Definition              Value          Derivative Info.                !
 --------------------------------------------------------------------------------
 ! R1    R(1,2)                  1.4252         calculate D2E/DX2 analytically  !
 ! R2    R(1,4)                  1.4065         calculate D2E/DX2 analytically  !
 ! R3    R(1,27)                 1.7661         calculate D2E/DX2 analytically  !
 ! R4    R(2,3)                  1.2424         calculate D2E/DX2 analytically  !
 ! R5    R(2,28)                 1.5001         calculate D2E/DX2 analytically  !
 ! R6    R(3,10)                 2.1565         calculate D2E/DX2 analytically  !
 ! R7    R(4,9)                  2.0361         calculate D2E/DX2 analytically  !
 ! R8    R(4,12)                 1.5053         calculate D2E/DX2 analytically  !
 ! R9    R(4,16)                 1.5087         calculate D2E/DX2 analytically  !
 ! R10   R(5,6)                  1.0886         calculate D2E/DX2 analytically  !
 ! R11   R(5,7)                  1.0905         calculate D2E/DX2 analytically  !
 ! R12   R(5,8)                  1.0914         calculate D2E/DX2 analytically  !
 ! R13   R(5,9)                  1.4543         calculate D2E/DX2 analytically  !
 ! R14   R(9,10)                 1.0163         calculate D2E/DX2 analytically  !
 ! R15   R(9,11)                 1.0109         calculate D2E/DX2 analytically  !
 ! R16   R(11,22)                2.0878         calculate D2E/DX2 analytically  !
 ! R17   R(12,13)                1.0877         calculate D2E/DX2 analytically  !
 ! R18   R(12,14)                1.0879         calculate D2E/DX2 analytically  !
 ! R19   R(12,15)                1.0925         calculate D2E/DX2 analytically  !
 ! R20   R(16,17)                1.3936         calculate D2E/DX2 analytically  !
 ! R21   R(16,21)                1.3934         calculate D2E/DX2 analytically  !
 ! R22   R(17,18)                1.3858         calculate D2E/DX2 analytically  !
 ! R23   R(17,22)                1.0817         calculate D2E/DX2 analytically  !
 ! R24   R(18,19)                1.3866         calculate D2E/DX2 analytically  !
 ! R25   R(18,23)                1.0825         calculate D2E/DX2 analytically  !
 ! R26   R(19,20)                1.3866         calculate D2E/DX2 analytically  !
 ! R27   R(19,24)                1.0825         calculate D2E/DX2 analytically  !
 ! R28   R(20,21)                1.3855         calculate D2E/DX2 analytically  !
 ! R29   R(20,25)                1.0827         calculate D2E/DX2 analytically  !
 ! R30   R(21,26)                1.0815         calculate D2E/DX2 analytically  !
 ! R31   R(28,29)                1.3908         calculate D2E/DX2 analytically  !
 ! R32   R(28,33)                1.3913         calculate D2E/DX2 analytically  !
 ! R33   R(29,30)                1.3864         calculate D2E/DX2 analytically  !
 ! R34   R(29,34)                1.0829         calculate D2E/DX2 analytically  !
 ! R35   R(30,31)                1.3881         calculate D2E/DX2 analytically  !
 ! R36   R(30,35)                1.0827         calculate D2E/DX2 analytically  !
 ! R37   R(31,32)                1.3884         calculate D2E/DX2 analytically  !
 ! R38   R(31,36)                1.0827         calculate D2E/DX2 analytically  !
 ! R39   R(32,33)                1.3863         calculate D2E/DX2 analytically  !
 ! R40   R(32,37)                1.0827         calculate D2E/DX2 analytically  !
 ! R41   R(33,38)                1.083          calculate D2E/DX2 analytically  !
 ! A1    A(2,1,4)              122.1609         calculate D2E/DX2 analytically  !
 ! A2    A(2,1,27)             118.0072         calculate D2E/DX2 analytically  !
 ! A3    A(4,1,27)             118.4768         calculate D2E/DX2 analytically  !
 ! A4    A(1,2,3)              121.4712         calculate D2E/DX2 analytically  !
 ! A5    A(1,2,28)             120.8011         calculate D2E/DX2 analytically  !
 ! A6    A(3,2,28)             117.7254         calculate D2E/DX2 analytically  !
 ! A7    A(2,3,10)             103.752          calculate D2E/DX2 analytically  !
 ! A8    A(1,4,9)              102.9506         calculate D2E/DX2 analytically  !
 ! A9    A(1,4,12)             119.0112         calculate D2E/DX2 analytically  !
 ! A10   A(1,4,16)             118.2755         calculate D2E/DX2 analytically  !
 ! A11   A(9,4,12)              99.747          calculate D2E/DX2 analytically  !
 ! A12   A(9,4,16)              98.677          calculate D2E/DX2 analytically  !
 ! A13   A(12,4,16)            112.9342         calculate D2E/DX2 analytically  !
 ! A14   A(6,5,7)              108.9244         calculate D2E/DX2 analytically  !
 ! A15   A(6,5,8)              108.9854         calculate D2E/DX2 analytically  !
 ! A16   A(6,5,9)              109.7185         calculate D2E/DX2 analytically  !
 ! A17   A(7,5,8)              108.4533         calculate D2E/DX2 analytically  !
 ! A18   A(7,5,9)              108.7458         calculate D2E/DX2 analytically  !
 ! A19   A(8,5,9)              111.9584         calculate D2E/DX2 analytically  !
 ! A20   A(4,9,5)              112.2326         calculate D2E/DX2 analytically  !
 ! A21   A(4,9,10)              95.4485         calculate D2E/DX2 analytically  !
 ! A22   A(4,9,11)             115.4576         calculate D2E/DX2 analytically  !
 ! A23   A(5,9,10)             111.2619         calculate D2E/DX2 analytically  !
 ! A24   A(5,9,11)             111.7641         calculate D2E/DX2 analytically  !
 ! A25   A(10,9,11)            109.5689         calculate D2E/DX2 analytically  !
 ! A26   A(3,10,9)             130.5752         calculate D2E/DX2 analytically  !
 ! A27   A(9,11,22)            111.0754         calculate D2E/DX2 analytically  !
 ! A28   A(4,12,13)            111.7814         calculate D2E/DX2 analytically  !
 ! A29   A(4,12,14)            110.7381         calculate D2E/DX2 analytically  !
 ! A30   A(4,12,15)            108.7769         calculate D2E/DX2 analytically  !
 ! A31   A(13,12,14)           109.5291         calculate D2E/DX2 analytically  !
 ! A32   A(13,12,15)           107.9503         calculate D2E/DX2 analytically  !
 ! A33   A(14,12,15)           107.9445         calculate D2E/DX2 analytically  !
 ! A34   A(4,16,17)            122.0154         calculate D2E/DX2 analytically  !
 ! A35   A(4,16,21)            119.6592         calculate D2E/DX2 analytically  !
 ! A36   A(17,16,21)           117.9887         calculate D2E/DX2 analytically  !
 ! A37   A(16,17,18)           121.0922         calculate D2E/DX2 analytically  !
 ! A38   A(16,17,22)           120.6472         calculate D2E/DX2 analytically  !
 ! A39   A(18,17,22)           118.2589         calculate D2E/DX2 analytically  !
 ! A40   A(17,18,19)           120.2441         calculate D2E/DX2 analytically  !
 ! A41   A(17,18,23)           119.5215         calculate D2E/DX2 analytically  !
 ! A42   A(19,18,23)           120.2332         calculate D2E/DX2 analytically  !
 ! A43   A(18,19,20)           119.2808         calculate D2E/DX2 analytically  !
 ! A44   A(18,19,24)           120.3182         calculate D2E/DX2 analytically  !
 ! A45   A(20,19,24)           120.3976         calculate D2E/DX2 analytically  !
 ! A46   A(19,20,21)           120.2998         calculate D2E/DX2 analytically  !
 ! A47   A(19,20,25)           120.1865         calculate D2E/DX2 analytically  !
 ! A48   A(21,20,25)           119.5131         calculate D2E/DX2 analytically  !
 ! A49   A(16,21,20)           121.0596         calculate D2E/DX2 analytically  !
 ! A50   A(16,21,26)           119.2396         calculate D2E/DX2 analytically  !
 ! A51   A(20,21,26)           119.6991         calculate D2E/DX2 analytically  !
 ! A52   A(11,22,17)           116.7024         calculate D2E/DX2 analytically  !
 ! A53   A(2,28,29)            119.114          calculate D2E/DX2 analytically  !
 ! A54   A(2,28,33)            121.4151         calculate D2E/DX2 analytically  !
 ! A55   A(29,28,33)           119.3346         calculate D2E/DX2 analytically  !
 ! A56   A(28,29,30)           120.3985         calculate D2E/DX2 analytically  !
 ! A57   A(28,29,34)           119.2728         calculate D2E/DX2 analytically  !
 ! A58   A(30,29,34)           120.3285         calculate D2E/DX2 analytically  !
 ! A59   A(29,30,31)           119.9987         calculate D2E/DX2 analytically  !
 ! A60   A(29,30,35)           119.9092         calculate D2E/DX2 analytically  !
 ! A61   A(31,30,35)           120.0911         calculate D2E/DX2 analytically  !
 ! A62   A(30,31,32)           119.8595         calculate D2E/DX2 analytically  !
 ! A63   A(30,31,36)           120.0834         calculate D2E/DX2 analytically  !
 ! A64   A(32,31,36)           120.0568         calculate D2E/DX2 analytically  !
 ! A65   A(31,32,33)           120.0694         calculate D2E/DX2 analytically  !
 ! A66   A(31,32,37)           120.0922         calculate D2E/DX2 analytically  !
 ! A67   A(33,32,37)           119.8383         calculate D2E/DX2 analytically  !
 ! A68   A(28,33,32)           120.322          calculate D2E/DX2 analytically  !
 ! A69   A(28,33,38)           119.6693         calculate D2E/DX2 analytically  !
 ! A70   A(32,33,38)           120.0064         calculate D2E/DX2 analytically  !
 ! D1    D(4,1,2,3)              9.2617         calculate D2E/DX2 analytically  !
 ! D2    D(4,1,2,28)          -171.3116         calculate D2E/DX2 analytically  !
 ! D3    D(27,1,2,3)          -157.237          calculate D2E/DX2 analytically  !
 ! D4    D(27,1,2,28)           22.1898         calculate D2E/DX2 analytically  !
 ! D5    D(2,1,4,9)            -60.4756         calculate D2E/DX2 analytically  !
 ! D6    D(2,1,4,12)          -169.5119         calculate D2E/DX2 analytically  !
 ! D7    D(2,1,4,16)            46.9502         calculate D2E/DX2 analytically  !
 ! D8    D(27,1,4,9)           105.9623         calculate D2E/DX2 analytically  !
 ! D9    D(27,1,4,12)           -3.074          calculate D2E/DX2 analytically  !
 ! D10   D(27,1,4,16)         -146.6118         calculate D2E/DX2 analytically  !
 ! D11   D(1,2,3,10)            30.4442         calculate D2E/DX2 analytically  !
 ! D12   D(28,2,3,10)         -148.9995         calculate D2E/DX2 analytically  !
 ! D13   D(1,2,28,29)         -133.4023         calculate D2E/DX2 analytically  !
 ! D14   D(1,2,28,33)           50.8701         calculate D2E/DX2 analytically  !
 ! D15   D(3,2,28,29)           46.0454         calculate D2E/DX2 analytically  !
 ! D16   D(3,2,28,33)         -129.6822         calculate D2E/DX2 analytically  !
 ! D17   D(2,3,10,9)            -9.6758         calculate D2E/DX2 analytically  !
 ! D18   D(1,4,9,5)            -50.659          calculate D2E/DX2 analytically  !
 ! D19   D(1,4,9,10)            64.9687         calculate D2E/DX2 analytically  !
 ! D20   D(1,4,9,11)           179.6804         calculate D2E/DX2 analytically  !
 ! D21   D(12,4,9,5)            72.3266         calculate D2E/DX2 analytically  !
 ! D22   D(12,4,9,10)         -172.0457         calculate D2E/DX2 analytically  !
 ! D23   D(12,4,9,11)          -57.334          calculate D2E/DX2 analytically  !
 ! D24   D(16,4,9,5)          -172.4484         calculate D2E/DX2 analytically  !
 ! D25   D(16,4,9,10)          -56.8207         calculate D2E/DX2 analytically  !
 ! D26   D(16,4,9,11)           57.891          calculate D2E/DX2 analytically  !
 ! D27   D(1,4,12,13)           49.3323         calculate D2E/DX2 analytically  !
 ! D28   D(1,4,12,14)          171.7593         calculate D2E/DX2 analytically  !
 ! D29   D(1,4,12,15)          -69.7717         calculate D2E/DX2 analytically  !
 ! D30   D(9,4,12,13)          -61.4784         calculate D2E/DX2 analytically  !
 ! D31   D(9,4,12,14)           60.9486         calculate D2E/DX2 analytically  !
 ! D32   D(9,4,12,15)          179.4176         calculate D2E/DX2 analytically  !
 ! D33   D(16,4,12,13)        -165.2997         calculate D2E/DX2 analytically  !
 ! D34   D(16,4,12,14)         -42.8727         calculate D2E/DX2 analytically  !
 ! D35   D(16,4,12,15)          75.5963         calculate D2E/DX2 analytically  !
 ! D36   D(1,4,16,17)         -157.6661         calculate D2E/DX2 analytically  !
 ! D37   D(1,4,16,21)           29.1322         calculate D2E/DX2 analytically  !
 ! D38   D(9,4,16,17)          -47.819          calculate D2E/DX2 analytically  !
 ! D39   D(9,4,16,21)          138.9792         calculate D2E/DX2 analytically  !
 ! D40   D(12,4,16,17)          56.6898         calculate D2E/DX2 analytically  !
 ! D41   D(12,4,16,21)        -116.5119         calculate D2E/DX2 analytically  !
 ! D42   D(6,5,9,4)            -78.2085         calculate D2E/DX2 analytically  !
 ! D43   D(6,5,9,10)           176.1794         calculate D2E/DX2 analytically  !
 ! D44   D(6,5,9,11)            53.3361         calculate D2E/DX2 analytically  !
 ! D45   D(7,5,9,4)             40.8341         calculate D2E/DX2 analytically  !
 ! D46   D(7,5,9,10)           -64.7781         calculate D2E/DX2 analytically  !
 ! D47   D(7,5,9,11)           172.3786         calculate D2E/DX2 analytically  !
 ! D48   D(8,5,9,4)            160.6515         calculate D2E/DX2 analytically  !
 ! D49   D(8,5,9,10)            55.0393         calculate D2E/DX2 analytically  !
 ! D50   D(8,5,9,11)           -67.8039         calculate D2E/DX2 analytically  !
 ! D51   D(4,9,10,3)           -32.527          calculate D2E/DX2 analytically  !
 ! D52   D(5,9,10,3)            83.8939         calculate D2E/DX2 analytically  !
 ! D53   D(11,9,10,3)         -152.0103         calculate D2E/DX2 analytically  !
 ! D54   D(4,9,11,22)          -25.4732         calculate D2E/DX2 analytically  !
 ! D55   D(5,9,11,22)         -155.3612         calculate D2E/DX2 analytically  !
 ! D56   D(10,9,11,22)          80.837          calculate D2E/DX2 analytically  !
 ! D57   D(9,11,22,17)         -23.5043         calculate D2E/DX2 analytically  !
 ! D58   D(4,16,17,18)        -175.4484         calculate D2E/DX2 analytically  !
 ! D59   D(4,16,17,22)           4.0756         calculate D2E/DX2 analytically  !
 ! D60   D(21,16,17,18)         -2.1379         calculate D2E/DX2 analytically  !
 ! D61   D(21,16,17,22)        177.3861         calculate D2E/DX2 analytically  !
 ! D62   D(4,16,21,20)         175.3582         calculate D2E/DX2 analytically  !
 ! D63   D(4,16,21,26)          -4.1729         calculate D2E/DX2 analytically  !
 ! D64   D(17,16,21,20)          1.8847         calculate D2E/DX2 analytically  !
 ! D65   D(17,16,21,26)       -177.6463         calculate D2E/DX2 analytically  !
 ! D66   D(16,17,18,19)          0.9812         calculate D2E/DX2 analytically  !
 ! D67   D(16,17,18,23)       -179.407          calculate D2E/DX2 analytically  !
 ! D68   D(22,17,18,19)       -178.5539         calculate D2E/DX2 analytically  !
 ! D69   D(22,17,18,23)          1.0579         calculate D2E/DX2 analytically  !
 ! D70   D(16,17,22,11)         38.9236         calculate D2E/DX2 analytically  !
 ! D71   D(18,17,22,11)       -141.5392         calculate D2E/DX2 analytically  !
 ! D72   D(17,18,19,20)          0.4848         calculate D2E/DX2 analytically  !
 ! D73   D(17,18,19,24)        179.8108         calculate D2E/DX2 analytically  !
 ! D74   D(23,18,19,20)       -179.1242         calculate D2E/DX2 analytically  !
 ! D75   D(23,18,19,24)          0.2019         calculate D2E/DX2 analytically  !
 ! D76   D(18,19,20,21)         -0.7351         calculate D2E/DX2 analytically  !
 ! D77   D(18,19,20,25)        178.9806         calculate D2E/DX2 analytically  !
 ! D78   D(24,19,20,21)        179.9394         calculate D2E/DX2 analytically  !
 ! D79   D(24,19,20,25)         -0.3449         calculate D2E/DX2 analytically  !
 ! D80   D(19,20,21,16)         -0.474          calculate D2E/DX2 analytically  !
 ! D81   D(19,20,21,26)        179.0549         calculate D2E/DX2 analytically  !
 ! D82   D(25,20,21,16)        179.8084         calculate D2E/DX2 analytically  !
 ! D83   D(25,20,21,26)         -0.6627         calculate D2E/DX2 analytically  !
 ! D84   D(2,28,29,30)        -176.8394         calculate D2E/DX2 analytically  !
 ! D85   D(2,28,29,34)           3.3218         calculate D2E/DX2 analytically  !
 ! D86   D(33,28,29,30)         -1.0217         calculate D2E/DX2 analytically  !
 ! D87   D(33,28,29,34)        179.1394         calculate D2E/DX2 analytically  !
 ! D88   D(2,28,33,32)         175.5665         calculate D2E/DX2 analytically  !
 ! D89   D(2,28,33,38)          -3.8819         calculate D2E/DX2 analytically  !
 ! D90   D(29,28,33,32)         -0.1518         calculate D2E/DX2 analytically  !
 ! D91   D(29,28,33,38)       -179.6002         calculate D2E/DX2 analytically  !
 ! D92   D(28,29,30,31)          1.2879         calculate D2E/DX2 analytically  !
 ! D93   D(28,29,30,35)       -179.0747         calculate D2E/DX2 analytically  !
 ! D94   D(34,29,30,31)       -178.875          calculate D2E/DX2 analytically  !
 ! D95   D(34,29,30,35)          0.7624         calculate D2E/DX2 analytically  !
 ! D96   D(29,30,31,32)         -0.3749         calculate D2E/DX2 analytically  !
 ! D97   D(29,30,31,36)        179.4458         calculate D2E/DX2 analytically  !
 ! D98   D(35,30,31,32)        179.9884         calculate D2E/DX2 analytically  !
 ! D99   D(35,30,31,36)         -0.1909         calculate D2E/DX2 analytically  !
 ! D100  D(30,31,32,33)         -0.7938         calculate D2E/DX2 analytically  !
 ! D101  D(30,31,32,37)        179.3544         calculate D2E/DX2 analytically  !
 ! D102  D(36,31,32,33)        179.3854         calculate D2E/DX2 analytically  !
 ! D103  D(36,31,32,37)         -0.4664         calculate D2E/DX2 analytically  !
 ! D104  D(31,32,33,28)          1.0585         calculate D2E/DX2 analytically  !
 ! D105  D(31,32,33,38)       -179.495          calculate D2E/DX2 analytically  !
 ! D106  D(37,32,33,28)       -179.0894         calculate D2E/DX2 analytically  !
 ! D107  D(37,32,33,38)          0.3572         calculate D2E/DX2 analytically  !
 --------------------------------------------------------------------------------
 Trust Radius=1.00D-02 FncErr=1.00D-07 GrdErr=1.00D-06 EigMax=2.50D+02 EigMin=1.00D-04
 Number of steps in this run=     70 maximum allowed number of steps=    228.
 Search for a saddle point of order  1.
 GradGradGradGradGradGradGradGradGradGradGradGradGradGradGradGradGradGrad

                          Input orientation:                          
 ---------------------------------------------------------------------
 Center     Atomic      Atomic             Coordinates (Angstroms)
 Number     Number       Type             X           Y           Z
 ---------------------------------------------------------------------
      1          6           0        0.074950    0.673110    0.515410
      2          6           0        0.774100   -0.061770   -0.485760
      3          8           0        0.213620   -0.426270   -1.532970
      4          6           0       -1.318150    0.861740    0.469910
      5          6           0       -0.710870    3.016880   -1.397640
      6          1           0       -1.108430    3.838740   -0.804690
      7          1           0        0.274650    2.749140   -1.015110
      8          1           0       -0.602060    3.345870   -2.432540
      9          7           0       -1.586260    1.861210   -1.283590
     10          1           0       -1.270600    1.099700   -1.877950
     11          1           0       -2.543980    2.092650   -1.509800
     12          6           0       -1.953790    1.840360    1.420810
     13          1           0       -1.440250    2.799210    1.416230
     14          1           0       -3.003370    1.988790    1.176250
     15          1           0       -1.898350    1.433560    2.433200
     16          6           0       -2.192440   -0.334560    0.186000
     17          6           0       -3.483140   -0.202300   -0.322590
     18          6           0       -4.303570   -1.306760   -0.488710
     19          6           0       -3.856490   -2.569250   -0.129540
     20          6           0       -2.585430   -2.711640    0.406010
     21          6           0       -1.766270   -1.605710    0.565730
     22          1           0       -3.872970    0.770270   -0.591190
     23          1           0       -5.298400   -1.175970   -0.895040
     24          1           0       -4.497470   -3.432390   -0.255940
     25          1           0       -2.227680   -3.688260    0.706800
     26          1           0       -0.782460   -1.725650    0.998640
     27         17           0        1.021970    1.658120    1.634280
     28          6           0        2.222780   -0.410290   -0.311780
     29          6           0        3.101660   -0.197360   -1.368500
     30          6           0        4.432620   -0.570180   -1.260030
     31          6           0        4.889220   -1.184140   -0.101800
     32          6           0        4.012320   -1.416400    0.949210
     33          6           0        2.687390   -1.021150    0.848650
     34          1           0        2.735680    0.265450   -2.276570
     35          1           0        5.113270   -0.387070   -2.081900
     36          1           0        5.926320   -1.483970   -0.019120
     37          1           0        4.362000   -1.904420    1.850220
     38          1           0        2.006160   -1.195480    1.672370
 ---------------------------------------------------------------------
                    Distance matrix (angstroms):
                    1          2          3          4          5
     1  C    0.000000
     2  C    1.425202   0.000000
     3  O    2.328890   1.242436   0.000000
     4  C    1.406549   2.478646   2.831398   0.000000
     5  C    3.125785   3.537619   3.567671   2.915675   0.000000
     6  H    3.628259   4.342766   4.524215   3.245168   1.088622
     7  H    2.586943   2.903597   3.217939   2.881766   1.090534
     8  H    4.036384   4.158819   3.962777   3.886889   1.091372
     9  N    2.721691   3.147330   2.921356   2.036071   1.454266
    10  H    2.778607   2.732765   2.156503   2.360367   2.054160
    11  H    3.602133   4.086544   3.734950   2.633828   2.055985
    12  C    2.509583   3.833339   4.308143   1.505306   3.297379
    13  H    2.761813   4.087312   4.672985   2.159681   2.915003
    14  H    3.412298   4.608292   4.849888   2.146887   3.596865
    15  H    2.854841   4.230642   4.863115   2.125586   4.311884
    16  C    2.502992   3.053856   2.958444   1.508682   3.991881
    17  C    3.758802   4.262683   3.896308   2.539177   4.382275
    18  C    4.909132   5.228072   4.719189   3.812358   5.694516
    19  C    5.136641   5.277946   4.809134   4.309780   6.535124
    20  C    4.306521   4.370756   4.100883   3.791982   6.291508
    21  C    2.930127   3.153230   3.116983   2.509642   5.131962
    22  H    4.101229   4.722146   4.361064   2.767924   3.961880
    23  H    5.855028   6.187423   5.599229   4.675226   6.235225
    24  H    6.193314   6.261258   5.732533   5.392076   7.565375
    25  H    4.935614   4.856368   4.649419   4.646059   7.189456
    26  H    2.592819   2.719342   3.014898   2.694644   5.314026
    27  Cl   1.766058   2.741173   3.876801   2.732424   3.747199
    28  C    2.543850   1.500136   2.351230   3.842823   4.640139
    29  C    3.669851   2.493020   2.901762   4.902669   4.986740
    30  C    4.866954   3.773956   4.230268   6.173690   6.272274
    31  C    5.196876   4.282681   4.948116   6.560787   7.119605
    32  C    4.478517   3.792127   4.644534   5.816662   6.889862
    33  C    3.131519   2.522249   3.485044   4.442192   5.735824
    34  H    3.878250   2.676167   2.718861   4.932773   4.496842
    35  H    5.766686   4.634855   4.930460   7.030962   6.780538
    36  H    6.259173   5.365238   6.003783   7.630456   8.136969
    37  H    5.177275   4.661029   5.553374   6.466916   7.778290
    38  H    2.925706   2.731446   3.752211   4.090122   5.878026
                    6          7          8          9         10
     6  H    0.000000
     7  H    1.773250   0.000000
     8  H    1.774606   1.770258   0.000000
     9  N    2.090046   2.079300   2.119658   0.000000
    10  H    2.946273   2.419286   2.408276   1.016269   0.000000
    11  H    2.367871   2.936047   2.488586   1.010922   1.656195
    12  C    3.108216   3.424256   4.352245   2.729339   3.449224
    13  H    2.474513   2.975702   3.976736   2.861851   3.710625
    14  H    3.307149   4.015670   4.542171   2.841706   3.622307
    15  H    4.110085   4.282934   5.386346   3.754306   4.369387
    16  C    4.424136   4.127760   4.788698   2.710822   2.677084
    17  C    4.711865   4.828205   5.034086   2.963064   3.001613
    18  C    6.065058   6.139016   6.255127   4.248722   4.113386
    19  C    7.004998   6.792336   7.133286   5.110259   4.817153
    20  C    6.823108   6.326117   6.977431   4.976349   4.633742
    21  C    5.652684   5.062522   5.904503   3.933436   3.679199
    22  H    4.135671   4.615017   4.552267   2.626521   2.921747
    23  H    6.535390   6.817609   6.698250   4.812008   4.729478
    24  H    8.040899   7.846068   8.115209   6.128084   5.795123
    25  H    7.758418   7.118058   7.872552   5.930404   5.524626
    26  H    5.858386   5.019603   6.125835   4.326688   4.061484
    27  Cl   3.904137   2.961094   4.693080   3.918938   4.231249
    28  C    5.421640   3.777814   5.156169   4.540145   4.115418
    29  C    5.859423   4.098626   5.234902   5.120695   4.588961
    30  C    7.095713   5.326029   6.485232   6.491466   5.974700
    31  C    7.854628   6.131809   7.490494   7.252767   6.805440
    32  C    7.544186   5.931311   7.443652   6.860920   6.498680
    33  C    6.384380   4.848711   6.376328   5.578399   5.253383
    34  H    5.450873   3.717078   4.544648   4.712921   4.111587
    35  H    7.628780   5.863966   6.835407   7.111664   6.557887
    36  H    8.856414   7.131100   8.471818   8.320335   7.869324
    37  H    8.364092   6.824380   8.399373   7.706006   7.392575
    38  H    6.417154   5.077470   6.654093   5.566555   5.348811
                   11         12         13         14         15
    11  H    0.000000
    12  C    3.000075   0.000000
    13  H    3.206103   1.087721   0.000000
    14  H    2.727030   1.087869   1.776996   0.000000
    15  H    4.049505   1.092471   1.763259   1.763313   0.000000
    16  C    2.981722   2.512367   3.449604   2.652576   2.874482
    17  C    2.749233   3.090439   4.025662   2.697698   3.575189
    18  C    3.961663   4.367161   5.355967   3.914494   4.672472
    19  C    5.035982   5.046634   6.086705   4.817534   5.140470
    20  C    5.172354   4.706325   5.718518   4.781421   4.665218
    21  C    4.311673   3.555520   4.498106   3.850140   3.569601
    22  H    2.087761   2.979344   3.750261   2.316212   3.672331
    23  H    4.318407   5.064368   6.002445   4.424151   5.426525
    24  H    5.992859   6.089638   7.139719   5.802818   6.137130
    25  H    6.199378   5.581260   6.573477   5.748998   5.414975
    26  H    4.896390   3.777124   4.591452   4.331403   3.644692
    27  Cl   4.773893   2.988968   2.722528   4.064787   3.035946
    28  C    5.515611   5.050845   5.167659   5.939904   5.283788
    29  C    6.094043   6.122918   6.112536   6.966089   6.489447
    30  C    7.471680   7.333747   7.280505   8.232723   7.598428
    31  C    8.244530   7.634967   7.631100   8.601969   7.703875
    32  C    7.832320   6.813469   6.907966   7.801716   6.727594
    33  C    6.528803   5.482350   5.652850   6.446069   5.437409
    34  H    5.639274   6.175928   6.123325   6.915820   6.709743
    35  H    8.069064   8.195960   8.083187   9.063117   8.536020
    36  H    9.314522   8.672987   8.641309   9.655482   8.703523
    37  H    8.657879   7.355064   7.481884   8.358229   7.118564
    38  H    6.453044   4.996080   5.282130   5.956601   4.768219
                   16         17         18         19         20
    16  C    0.000000
    17  C    1.393579   0.000000
    18  C    2.420181   1.385833   0.000000
    19  C    2.804009   2.403978   1.386638   0.000000
    20  C    2.419371   2.762884   2.392951   1.386608   0.000000
    21  C    1.393427   2.388789   2.763893   2.404336   1.385502
    22  H    2.156120   1.081668   2.123669   3.371318   3.843939
    23  H    3.394644   2.137967   1.082542   2.146235   3.378050
    24  H    3.886518   3.386265   2.147110   1.082517   2.147919
    25  H    3.394080   3.845483   3.377885   2.145849   1.082703
    26  H    2.140925   3.370448   3.845243   3.381436   2.138712
    27  Cl   4.049780   5.252287   6.454377   6.691867   5.797998
    28  C    4.443837   5.709720   6.590008   6.453824   5.378691
    29  C    5.519311   6.667349   7.539379   7.454981   6.466335
    30  C    6.785126   7.979561   8.801051   8.601374   7.524265
    31  C    7.138244   8.432625   9.201746   8.854758   7.646013
    32  C    6.344440   7.698924   8.440004   8.025642   6.745592
    33  C    4.972248   6.333858   7.123456   6.795280   5.554846
    34  H    5.541717   6.535331   7.430971   7.490125   6.661345
    35  H    7.649806   8.776536   9.594840   9.435582   8.418034
    36  H    8.202285   9.501195  10.242195   9.843444   8.610331
    37  H    6.942245   8.316522   8.995549   8.479683   7.141718
    38  H    4.536378   5.924414   6.670483   6.285284   4.998511
                   21         22         23         24         25
    21  C    0.000000
    22  H    3.379635   0.000000
    23  H    3.846358   2.431466   0.000000
    24  H    3.386939   4.262012   2.478179   0.000000
    25  H    2.137712   4.926484   4.278646   2.478767   0.000000
    26  H    1.081517   4.278835   4.927665   4.276474   2.454724
    27  Cl   4.423649   5.449902   7.374049   7.742767   6.324889
    28  C    4.255769   6.215300   7.582520   7.368715   5.620426
    29  C    5.424153   7.084207   8.470115   8.333666   6.700382
    30  C    6.544613   8.439608   9.756687   9.431169   7.612519
    31  C    6.702154   8.990839  10.218459   9.653411   7.587801
    32  C    5.794394   8.326593   9.494660   8.827974   6.645127
    33  C    4.500760   6.951306   8.175406   7.658747   5.593882
    34  H    5.643356   6.838831   8.278451   8.371107   7.011937
    35  H    7.471486   9.182274  10.508752  10.245703   8.518465
    36  H    7.715751  10.071492  11.263056  10.606970   8.477828
    37  H    6.268559   8.996065  10.069281   9.233678   6.921949
    38  H    3.952742   6.599397   7.742646   7.142783   5.007163
                   26         27         28         29         30
    26  H    0.000000
    27  Cl   3.887146   0.000000
    28  C    3.532540   3.083409   0.000000
    29  C    4.798480   4.096902   1.390837   0.000000
    30  C    5.799462   4.997488   2.410007   1.386440   0.000000
    31  C    5.802771   5.103728   2.784392   2.402839   1.388138
    32  C    4.804997   4.343292   2.409317   2.772569   2.402807
    33  C    3.543822   3.251050   1.391262   2.401250   2.774118
    34  H    5.202767   4.491222   2.140115   1.082925   2.147379
    35  H    6.785363   5.893346   3.389513   2.142780   1.082721
    36  H    6.789843   6.054677   3.867124   3.384508   2.146162
    37  H    5.217530   4.888161   3.388647   3.855213   3.385091
    38  H    2.917429   3.018793   2.144831   3.382788   3.857159
                   31         32         33         34         35
    31  C    0.000000
    32  C    1.388352   0.000000
    33  C    2.403742   1.386281   0.000000
    34  H    3.386543   3.855397   3.380040   0.000000
    35  H    2.146233   3.385150   3.856822   2.473179   0.000000
    36  H    1.082733   2.146072   3.384951   4.282141   2.473722
    37  H    2.146426   1.082709   2.141875   4.937980   4.281159
    38  H    3.385239   2.143932   1.083042   4.273247   4.939859
                   36         37         38
    36  H    0.000000
    37  H    2.473521   0.000000
    38  H    4.279255   2.466619   0.000000
 Stoichiometry    C17H18ClNO
 Framework group  C1[X(C17H18ClNO)]
 Deg. of freedom   108
 Full point group                 C1      NOp   1
 Largest Abelian subgroup         C1      NOp   1
 Largest concise Abelian subgroup C1      NOp   1
                         Standard orientation:                         
 ---------------------------------------------------------------------
 Center     Atomic      Atomic             Coordinates (Angstroms)
 Number     Number       Type             X           Y           Z
 ---------------------------------------------------------------------
      1          6           0       -0.074950    0.673110   -0.515410
      2          6           0       -0.774100   -0.061770    0.485760
      3          8           0       -0.213620   -0.426270    1.532970
      4          6           0        1.318150    0.861740   -0.469910
      5          6           0        0.710869    3.016880    1.397640
      6          1           0        1.108429    3.838740    0.804690
      7          1           0       -0.274651    2.749140    1.015110
      8          1           0        0.602059    3.345870    2.432540
      9          7           0        1.586260    1.861210    1.283590
     10          1           0        1.270600    1.099700    1.877950
     11          1           0        2.543980    2.092651    1.509800
     12          6           0        1.953790    1.840361   -1.420810
     13          1           0        1.440249    2.799210   -1.416230
     14          1           0        3.003370    1.988791   -1.176250
     15          1           0        1.898350    1.433560   -2.433200
     16          6           0        2.192440   -0.334559   -0.186000
     17          6           0        3.483140   -0.202299    0.322590
     18          6           0        4.303571   -1.306759    0.488710
     19          6           0        3.856491   -2.569249    0.129540
     20          6           0        2.585431   -2.711639   -0.406010
     21          6           0        1.766271   -1.605710   -0.565730
     22          1           0        3.872970    0.770271    0.591190
     23          1           0        5.298401   -1.175969    0.895040
     24          1           0        4.497471   -3.432389    0.255940
     25          1           0        2.227681   -3.688259   -0.706800
     26          1           0        0.782461   -1.725650   -0.998640
     27         17           0       -1.021970    1.658120   -1.634280
     28          6           0       -2.222780   -0.410291    0.311780
     29          6           0       -3.101660   -0.197361    1.368500
     30          6           0       -4.432620   -0.570181    1.260030
     31          6           0       -4.889219   -1.184141    0.101800
     32          6           0       -4.012319   -1.416401   -0.949210
     33          6           0       -2.687390   -1.021151   -0.848650
     34          1           0       -2.735680    0.265449    2.276570
     35          1           0       -5.113270   -0.387071    2.081900
     36          1           0       -5.926319   -1.483972    0.019120
     37          1           0       -4.361999   -1.904421   -1.850220
     38          1           0       -2.006159   -1.195481   -1.672370
 ---------------------------------------------------------------------
 Rotational constants (GHZ):           0.5013377           0.2140201           0.1856327
 Standard basis: def2TZVP (5D, 7F)
 There are   834 symmetry adapted cartesian basis functions of A   symmetry.
 There are   734 symmetry adapted basis functions of A   symmetry.
   734 basis functions,  1182 primitive gaussians,   834 cartesian basis functions
    76 alpha electrons       76 beta electrons
       nuclear repulsion energy      1669.3294971229 Hartrees.
 NAtoms=   38 NActive=   38 NUniq=   38 SFac= 1.00D+00 NAtFMM=   60 NAOKFM=F Big=F
 Integral buffers will be    131072 words long.
 Raffenetti 2 integral format.
 Two-electron integral symmetry is turned on.
 Nuclear repulsion after empirical dispersion term =     1669.2978662558 Hartrees.
 Force inversion solution in PCM.
 ------------------------------------------------------------------------------
 Polarizable Continuum Model (PCM)
 =================================
 Model                : PCM.
 Atomic radii         : UFF (Universal Force Field).
 Polarization charges : Total charges.
 Charge compensation  : None.
 Solution method      : Matrix inversion.
 Cavity type          : Scaled VdW (van der Waals Surface) (Alpha=1.100).
 Cavity algorithm     : GePol (No added spheres)
                        Default sphere list used, NSphG=   38.
                        Lebedev-Laikov grids with approx.  5.0 points / Ang**2.
                        Smoothing algorithm: York/Karplus (Gamma=1.0000).
                        Polarization charges: spherical gaussians, with
                                              point-specific exponents (IZeta= 3).
                        Self-potential: point-specific (ISelfS= 7).
                        Self-field    : sphere-specific E.n sum rule (ISelfD= 2).
 1st derivatives      : Analytical E(r).r(x)/FMM algorithm (CHGder, D1EAlg=3).
                        Cavity 1st derivative terms included.
 2nd derivatives      : Analytical E(r).r(xy)/FMM algorithm (CHGder, D2EAlg=3).
                        Cavity 2nd derivative terms included.
 Solvent              : Water, Eps=  78.355300 Eps(inf)=   1.777849
 ------------------------------------------------------------------------------
 One-electron integrals computed using PRISM.
   1 Symmetry operations used in ECPInt.
 ECPInt:  NShTT=   43365 NPrTT=  133378 LenC2=   38435 LenP2D=   84228.
 LDataN:  DoStor=T MaxTD1= 6 Len=  172
 NBasis=   734 RedAO= T EigKep=  6.61D-06  NBF=   734
 NBsUse=   734 1.00D-06 EigRej= -1.00D+00 NBFU=   734
 ExpMin= 9.52D-02 ExpMax= 6.95D+04 ExpMxC= 2.37D+03 IAcc=3 IRadAn=         5 AccDes= 0.00D+00
 Harris functional with IExCor= 4639 and IRadAn=       5 diagonalized for initial guess.
 HarFok:  IExCor= 4639 AccDes= 0.00D+00 IRadAn=         5 IDoV= 1 UseB2=F ITyADJ=14
 ICtDFT=  3500011 ScaDFX=  1.000000  1.000000  1.000000  1.000000
 FoFCou: FMM=F IPFlag=           0 FMFlag=      100000 FMFlg1=           0
         NFxFlg=           0 DoJE=T BraDBF=F KetDBF=T FulRan=T
         wScrn=  0.000000 ICntrl=       500 IOpCl=  0 I1Cent=   200000004 NGrid=           0
         NMat0=    1 NMatS0=      1 NMatT0=    0 NMatD0=    1 NMtDS0=    0 NMtDT0=    0
 Petite list used in FoFCou.
 Requested convergence on RMS density matrix=1.00D-08 within 128 cycles.
 Requested convergence on MAX density matrix=1.00D-06.
 Requested convergence on             energy=1.00D-06.
 No special actions if energy rises.
 Inv3:  Mode=1 IEnd=    22195200.
 Iteration    1 A*A^-1 deviation from unit magnitude is 6.00D-15 for   2699.
 Iteration    1 A*A^-1 deviation from orthogonality  is 2.11D-15 for   1492   1181.
 Iteration    1 A^-1*A deviation from unit magnitude is 6.00D-15 for   2719.
 Iteration    1 A^-1*A deviation from orthogonality  is 8.09D-15 for   1394   1359.
 Error on total polarization charges =  0.01726
 SCF Done:  E(RwB97XD) =  -1248.82206410     A.U. after   15 cycles
            NFock= 15  Conv=0.62D-08     -V/T= 2.0036
 DoSCS=F DFT=T ScalE2(SS,OS)=  1.000000  1.000000
 Range of M.O.s used for correlation:     1   734
 NBasis=   734 NAE=    76 NBE=    76 NFC=     0 NFV=     0
 NROrb=    734 NOA=    76 NOB=    76 NVA=   658 NVB=   658

 **** Warning!!: The largest alpha MO coefficient is  0.63473857D+02

   1 Symmetry operations used in ECPInt.
 ECPInt:  NShTT=   43365 NPrTT=  133378 LenC2=   38435 LenP2D=   84228.
 LDataN:  DoStor=T MaxTD1= 7 Len=  274
 Number of processors reduced to  12 by ecpmxn.
 Symmetrizing basis deriv contribution to polar:
 IMax=3 JMax=2 DiffMx= 0.00D+00
 G2DrvN: will do    39 centers at a time, making    1 passes.
 Calling FoFCou, ICntrl=  3107 FMM=F I1Cent=   0 AccDes= 0.00D+00.
 NEqPCM:  Using equilibrium solvation (IEInf=0, Eps=  78.3553, EpsInf=   1.7778)
 G2PCM: DoFxE=T DoFxN=T DoGrad=T DoDP/DQ/DG/TGxP=FFFF NFrqRd=   0 IEInf=0 SqF1=F DoCFld=F IF1Alg=4.
 End of G2Drv F.D. properties file   721 does not exist.
 End of G2Drv F.D. properties file   722 does not exist.
 End of G2Drv F.D. properties file   788 does not exist.
          IDoAtm=11111111111111111111111111111111111111
 NEqPCM:  Using equilibrium solvation (IEInf=0, Eps=  78.3553, EpsInf=   1.7778)
          Differentiating once with respect to nuclear coordinates.
 CalDSu exits because no D1Ps are significant.
          There are   117 degrees of freedom in the 1st order CPHF.  IDoFFX=6 NUNeed=     0.
    111 vectors produced by pass  0 Test12= 5.00D-14 1.00D-09 XBig12= 1.12D-01 1.62D-01.
 AX will form   111 AO Fock derivatives at one time.
    111 vectors produced by pass  1 Test12= 5.00D-14 1.00D-09 XBig12= 1.31D-02 1.58D-02.
    111 vectors produced by pass  2 Test12= 5.00D-14 1.00D-09 XBig12= 4.45D-04 3.99D-03.
    111 vectors produced by pass  3 Test12= 5.00D-14 1.00D-09 XBig12= 8.69D-06 4.88D-04.
    111 vectors produced by pass  4 Test12= 5.00D-14 1.00D-09 XBig12= 1.02D-07 3.43D-05.
    111 vectors produced by pass  5 Test12= 5.00D-14 1.00D-09 XBig12= 9.05D-10 2.31D-06.
    111 vectors produced by pass  6 Test12= 5.00D-14 1.00D-09 XBig12= 7.12D-12 1.70D-07.
     54 vectors produced by pass  7 Test12= 5.00D-14 1.00D-09 XBig12= 5.38D-14 1.47D-08.
     20 vectors produced by pass  8 Test12= 5.00D-14 1.00D-09 XBig12= 8.76D-15 7.05D-09.
     15 vectors produced by pass  9 Test12= 5.00D-14 1.00D-09 XBig12= 7.44D-15 7.77D-09.
      8 vectors produced by pass 10 Test12= 5.00D-14 1.00D-09 XBig12= 2.13D-15 3.26D-09.
      8 vectors produced by pass 11 Test12= 5.00D-14 1.00D-09 XBig12= 3.61D-15 4.53D-09.
      8 vectors produced by pass 12 Test12= 5.00D-14 1.00D-09 XBig12= 4.75D-15 4.61D-09.
      8 vectors produced by pass 13 Test12= 5.00D-14 1.00D-09 XBig12= 6.15D-15 6.41D-09.
      8 vectors produced by pass 14 Test12= 5.00D-14 1.00D-09 XBig12= 4.02D-15 3.73D-09.
      8 vectors produced by pass 15 Test12= 5.00D-14 1.00D-09 XBig12= 4.75D-15 3.53D-09.
      8 vectors produced by pass 16 Test12= 5.00D-14 1.00D-09 XBig12= 6.08D-15 5.42D-09.
      8 vectors produced by pass 17 Test12= 5.00D-14 1.00D-09 XBig12= 2.56D-15 2.92D-09.
      8 vectors produced by pass 18 Test12= 5.00D-14 1.00D-09 XBig12= 4.73D-15 4.03D-09.
      6 vectors produced by pass 19 Test12= 5.00D-14 1.00D-09 XBig12= 9.38D-16 1.86D-09.
      6 vectors produced by pass 20 Test12= 5.00D-14 1.00D-09 XBig12= 3.04D-15 3.19D-09.
      6 vectors produced by pass 21 Test12= 5.00D-14 1.00D-09 XBig12= 2.69D-15 4.39D-09.
      6 vectors produced by pass 22 Test12= 5.00D-14 1.00D-09 XBig12= 4.85D-15 4.07D-09.
      5 vectors produced by pass 23 Test12= 5.00D-14 1.00D-09 XBig12= 1.47D-15 2.82D-09.
      5 vectors produced by pass 24 Test12= 5.00D-14 1.00D-09 XBig12= 2.30D-15 3.09D-09.
      5 vectors produced by pass 25 Test12= 5.00D-14 1.00D-09 XBig12= 2.18D-15 2.83D-09.
      5 vectors produced by pass 26 Test12= 5.00D-14 1.00D-09 XBig12= 2.64D-15 3.45D-09.
      5 vectors produced by pass 27 Test12= 5.00D-14 1.00D-09 XBig12= 2.93D-15 3.44D-09.
      5 vectors produced by pass 28 Test12= 5.00D-14 1.00D-09 XBig12= 3.55D-15 3.42D-09.
      5 vectors produced by pass 29 Test12= 5.00D-14 1.00D-09 XBig12= 2.95D-15 4.71D-09.
      5 vectors produced by pass 30 Test12= 5.00D-14 1.00D-09 XBig12= 4.18D-15 3.16D-09.
      5 vectors produced by pass 31 Test12= 5.00D-14 1.00D-09 XBig12= 2.85D-15 2.44D-09.
      5 vectors produced by pass 32 Test12= 5.00D-14 1.00D-09 XBig12= 2.25D-15 2.08D-09.
      5 vectors produced by pass 33 Test12= 5.00D-14 1.00D-09 XBig12= 3.75D-15 3.14D-09.
      5 vectors produced by pass 34 Test12= 5.00D-14 1.00D-09 XBig12= 2.69D-15 2.96D-09.
      5 vectors produced by pass 35 Test12= 5.00D-14 1.00D-09 XBig12= 3.13D-15 3.48D-09.
      5 vectors produced by pass 36 Test12= 5.00D-14 1.00D-09 XBig12= 2.16D-15 2.07D-09.
      3 vectors produced by pass 37 Test12= 5.00D-14 1.00D-09 XBig12= 1.19D-15 1.97D-09.
 InvSVY:  IOpt=1 It=  1 EMax= 7.77D-16
 Solved reduced A of dimension  1035 with   117 vectors.
 End of Minotr F.D. properties file   721 does not exist.
 End of Minotr F.D. properties file   722 does not exist.
 End of Minotr F.D. properties file   788 does not exist.

 **********************************************************************

            Population analysis using the SCF density.

 **********************************************************************

 Orbital symmetries:
       Occupied  (A) (A) (A) (A) (A) (A) (A) (A) (A) (A) (A) (A)
                 (A) (A) (A) (A) (A) (A) (A) (A) (A) (A) (A) (A)
                 (A) (A) (A) (A) (A) (A) (A) (A) (A) (A) (A) (A)
                 (A) (A) (A) (A) (A) (A) (A) (A) (A) (A) (A) (A)
                 (A) (A) (A) (A) (A) (A) (A) (A) (A) (A) (A) (A)
                 (A) (A) (A) (A) (A) (A) (A) (A) (A) (A) (A) (A)
                 (A) (A) (A) (A)
       Virtual   (A) (A) (A) (A) (A) (A) (A) (A) (A) (A) (A) (A)
                 (A) (A) (A) (A) (A) (A) (A) (A) (A) (A) (A) (A)
                 (A) (A) (A) (A) (A) (A) (A) (A) (A) (A) (A) (A)
                 (A) (A) (A) (A) (A) (A) (A) (A) (A) (A) (A) (A)
                 (A) (A) (A) (A) (A) (A) (A) (A) (A) (A) (A) (A)
                 (A) (A) (A) (A) (A) (A) (A) (A) (A) (A) (A) (A)
                 (A) (A) (A) (A) (A) (A) (A) (A) (A) (A) (A) (A)
                 (A) (A) (A) (A) (A) (A) (A) (A) (A) (A) (A) (A)
                 (A) (A) (A) (A) (A) (A) (A) (A) (A) (A) (A) (A)
                 (A) (A) (A) (A) (A) (A) (A) (A) (A) (A) (A) (A)
                 (A) (A) (A) (A) (A) (A) (A) (A) (A) (A) (A) (A)
                 (A) (A) (A) (A) (A) (A) (A) (A) (A) (A) (A) (A)
                 (A) (A) (A) (A) (A) (A) (A) (A) (A) (A) (A) (A)
                 (A) (A) (A) (A) (A) (A) (A) (A) (A) (A) (A) (A)
                 (A) (A) (A) (A) (A) (A) (A) (A) (A) (A) (A) (A)
                 (A) (A) (A) (A) (A) (A) (A) (A) (A) (A) (A) (A)
                 (A) (A) (A) (A) (A) (A) (A) (A) (A) (A) (A) (A)
                 (A) (A) (A) (A) (A) (A) (A) (A) (A) (A) (A) (A)
                 (A) (A) (A) (A) (A) (A) (A) (A) (A) (A) (A) (A)
                 (A) (A) (A) (A) (A) (A) (A) (A) (A) (A) (A) (A)
                 (A) (A) (A) (A) (A) (A) (A) (A) (A) (A) (A) (A)
                 (A) (A) (A) (A) (A) (A) (A) (A) (A) (A) (A) (A)
                 (A) (A) (A) (A) (A) (A) (A) (A) (A) (A) (A) (A)
                 (A) (A) (A) (A) (A) (A) (A) (A) (A) (A) (A) (A)
                 (A) (A) (A) (A) (A) (A) (A) (A) (A) (A) (A) (A)
                 (A) (A) (A) (A) (A) (A) (A) (A) (A) (A) (A) (A)
                 (A) (A) (A) (A) (A) (A) (A) (A) (A) (A) (A) (A)
                 (A) (A) (A) (A) (A) (A) (A) (A) (A) (A) (A) (A)
                 (A) (A) (A) (A) (A) (A) (A) (A) (A) (A) (A) (A)
                 (A) (A) (A) (A) (A) (A) (A) (A) (A) (A) (A) (A)
                 (A) (A) (A) (A) (A) (A) (A) (A) (A) (A) (A) (A)
                 (A) (A) (A) (A) (A) (A) (A) (A) (A) (A) (A) (A)
                 (A) (A) (A) (A) (A) (A) (A) (A) (A) (A) (A) (A)
                 (A) (A) (A) (A) (A) (A) (A) (A) (A) (A) (A) (A)
                 (A) (A) (A) (A) (A) (A) (A) (A) (A) (A) (A) (A)
                 (A) (A) (A) (A) (A) (A) (A) (A) (A) (A) (A) (A)
                 (A) (A) (A) (A) (A) (A) (A) (A) (A) (A) (A) (A)
                 (A) (A) (A) (A) (A) (A) (A) (A) (A) (A) (A) (A)
                 (A) (A) (A) (A) (A) (A) (A) (A) (A) (A) (A) (A)
                 (A) (A) (A) (A) (A) (A) (A) (A) (A) (A) (A) (A)
                 (A) (A) (A) (A) (A) (A) (A) (A) (A) (A) (A) (A)
                 (A) (A) (A) (A) (A) (A) (A) (A) (A) (A) (A) (A)
                 (A) (A) (A) (A) (A) (A) (A) (A) (A) (A) (A) (A)
                 (A) (A) (A) (A) (A) (A) (A) (A) (A) (A) (A) (A)
                 (A) (A) (A) (A) (A) (A) (A) (A) (A) (A) (A) (A)
                 (A) (A) (A) (A) (A) (A) (A) (A) (A) (A) (A) (A)
                 (A) (A) (A) (A) (A) (A) (A) (A) (A) (A) (A) (A)
                 (A) (A) (A) (A) (A) (A) (A) (A) (A) (A) (A) (A)
                 (A) (A) (A) (A) (A) (A) (A) (A) (A) (A) (A) (A)
                 (A) (A) (A) (A) (A) (A) (A) (A) (A) (A) (A) (A)
                 (A) (A) (A) (A) (A) (A) (A) (A) (A) (A) (A) (A)
                 (A) (A) (A) (A) (A) (A) (A) (A) (A) (A) (A) (A)
                 (A) (A) (A) (A) (A) (A) (A) (A) (A) (A) (A) (A)
                 (A) (A) (A) (A) (A) (A) (A) (A) (A) (A) (A) (A)
                 (A) (A) (A) (A) (A) (A) (A) (A) (A) (A)
 The electronic state is 1-A.
 Alpha  occ. eigenvalues -- -101.68759 -19.21773 -14.46570 -10.36432 -10.36258
 Alpha  occ. eigenvalues --  -10.31154 -10.31115 -10.30900 -10.29773 -10.29560
 Alpha  occ. eigenvalues --  -10.29333 -10.29282 -10.29250 -10.29227 -10.29221
 Alpha  occ. eigenvalues --  -10.29199 -10.29117 -10.29115 -10.29098 -10.28592
 Alpha  occ. eigenvalues --   -9.57298  -7.31926  -7.31089  -7.31074  -1.12480
 Alpha  occ. eigenvalues --   -1.02523  -0.97941  -0.96935  -0.95940  -0.90266
 Alpha  occ. eigenvalues --   -0.86449  -0.85530  -0.85294  -0.83820  -0.80388
 Alpha  occ. eigenvalues --   -0.78089  -0.74202  -0.71172  -0.70578  -0.70403
 Alpha  occ. eigenvalues --   -0.67220  -0.63736  -0.62129  -0.61813  -0.58637
 Alpha  occ. eigenvalues --   -0.56910  -0.56782  -0.55782  -0.55077  -0.54502
 Alpha  occ. eigenvalues --   -0.53704  -0.53167  -0.52501  -0.51365  -0.51083
 Alpha  occ. eigenvalues --   -0.50110  -0.49591  -0.49145  -0.47496  -0.47210
 Alpha  occ. eigenvalues --   -0.47122  -0.46663  -0.45591  -0.44173  -0.43101
 Alpha  occ. eigenvalues --   -0.42977  -0.42872  -0.41816  -0.40225  -0.39561
 Alpha  occ. eigenvalues --   -0.35084  -0.34003  -0.33801  -0.33265  -0.32163
 Alpha  occ. eigenvalues --   -0.27648
 Alpha virt. eigenvalues --    0.00473   0.04036   0.05112   0.05244   0.07370
 Alpha virt. eigenvalues --    0.10310   0.11536   0.12781   0.13211   0.13872
 Alpha virt. eigenvalues --    0.14817   0.15105   0.15614   0.16433   0.16979
 Alpha virt. eigenvalues --    0.17403   0.18422   0.18519   0.18899   0.19222
 Alpha virt. eigenvalues --    0.19839   0.20219   0.20514   0.20968   0.21427
 Alpha virt. eigenvalues --    0.22001   0.22922   0.23544   0.23738   0.24892
 Alpha virt. eigenvalues --    0.25957   0.26270   0.26889   0.27707   0.27913
 Alpha virt. eigenvalues --    0.28100   0.28885   0.29288   0.29471   0.29842
 Alpha virt. eigenvalues --    0.30456   0.30973   0.31100   0.31397   0.31558
 Alpha virt. eigenvalues --    0.31939   0.32643   0.32887   0.33649   0.34321
 Alpha virt. eigenvalues --    0.34799   0.34926   0.35179   0.35814   0.36364
 Alpha virt. eigenvalues --    0.36907   0.38612   0.38702   0.39250   0.40033
 Alpha virt. eigenvalues --    0.40128   0.40469   0.41016   0.41556   0.42167
 Alpha virt. eigenvalues --    0.42303   0.42383   0.43106   0.43415   0.44327
 Alpha virt. eigenvalues --    0.44472   0.45204   0.45244   0.46012   0.46676
 Alpha virt. eigenvalues --    0.46999   0.47518   0.47956   0.48465   0.48720
 Alpha virt. eigenvalues --    0.49075   0.49398   0.49556   0.49934   0.50303
 Alpha virt. eigenvalues --    0.50787   0.51066   0.51356   0.52028   0.52412
 Alpha virt. eigenvalues --    0.53021   0.53534   0.53763   0.54168   0.54528
 Alpha virt. eigenvalues --    0.55052   0.55874   0.56514   0.56884   0.57490
 Alpha virt. eigenvalues --    0.57727   0.57859   0.58181   0.59060   0.59443
 Alpha virt. eigenvalues --    0.59868   0.60363   0.61048   0.61466   0.61611
 Alpha virt. eigenvalues --    0.62857   0.63078   0.64103   0.64885   0.65276
 Alpha virt. eigenvalues --    0.66524   0.67367   0.67664   0.69153   0.70557
 Alpha virt. eigenvalues --    0.70969   0.72057   0.73088   0.73418   0.73618
 Alpha virt. eigenvalues --    0.74298   0.74925   0.75272   0.76163   0.76541
 Alpha virt. eigenvalues --    0.77408   0.78006   0.78377   0.78640   0.79139
 Alpha virt. eigenvalues --    0.80429   0.80654   0.81149   0.81871   0.82286
 Alpha virt. eigenvalues --    0.83030   0.84123   0.84569   0.85280   0.86052
 Alpha virt. eigenvalues --    0.86736   0.87762   0.88216   0.88915   0.89328
 Alpha virt. eigenvalues --    0.90082   0.91294   0.91600   0.92733   0.93104
 Alpha virt. eigenvalues --    0.94194   0.94991   0.95418   0.96091   0.97458
 Alpha virt. eigenvalues --    0.97715   0.98390   0.98438   0.99467   1.00296
 Alpha virt. eigenvalues --    1.01028   1.01558   1.03011   1.03414   1.04307
 Alpha virt. eigenvalues --    1.05219   1.06245   1.06673   1.08181   1.08227
 Alpha virt. eigenvalues --    1.09233   1.10083   1.11252   1.12443   1.12949
 Alpha virt. eigenvalues --    1.13375   1.15165   1.16180   1.17057   1.17920
 Alpha virt. eigenvalues --    1.19044   1.19566   1.20975   1.21740   1.22664
 Alpha virt. eigenvalues --    1.23585   1.24162   1.24951   1.25730   1.26580
 Alpha virt. eigenvalues --    1.28373   1.28819   1.30162   1.30371   1.30689
 Alpha virt. eigenvalues --    1.31944   1.32413   1.32696   1.32960   1.33898
 Alpha virt. eigenvalues --    1.34534   1.35201   1.35680   1.36325   1.37159
 Alpha virt. eigenvalues --    1.37702   1.38797   1.39775   1.39877   1.40514
 Alpha virt. eigenvalues --    1.41605   1.42442   1.43821   1.45261   1.46369
 Alpha virt. eigenvalues --    1.47455   1.48305   1.49661   1.50427   1.51013
 Alpha virt. eigenvalues --    1.52506   1.53054   1.54583   1.55129   1.55938
 Alpha virt. eigenvalues --    1.56277   1.57443   1.57528   1.58237   1.58767
 Alpha virt. eigenvalues --    1.59153   1.60057   1.61389   1.61663   1.62974
 Alpha virt. eigenvalues --    1.64090   1.65038   1.65644   1.66192   1.66526
 Alpha virt. eigenvalues --    1.67523   1.67884   1.68839   1.69402   1.69713
 Alpha virt. eigenvalues --    1.70581   1.71815   1.72707   1.72895   1.73557
 Alpha virt. eigenvalues --    1.75104   1.75759   1.76212   1.77376   1.77598
 Alpha virt. eigenvalues --    1.78262   1.79195   1.79279   1.79710   1.80431
 Alpha virt. eigenvalues --    1.81164   1.81800   1.82141   1.82677   1.83626
 Alpha virt. eigenvalues --    1.83728   1.85133   1.86079   1.86849   1.89104
 Alpha virt. eigenvalues --    1.89699   1.92822   1.93586   1.94365   1.94775
 Alpha virt. eigenvalues --    1.95979   1.96743   1.97491   1.98346   1.98523
 Alpha virt. eigenvalues --    2.00108   2.00479   2.00790   2.01318   2.02230
 Alpha virt. eigenvalues --    2.02937   2.05237   2.06352   2.06848   2.08392
 Alpha virt. eigenvalues --    2.08716   2.10004   2.11749   2.12091   2.12436
 Alpha virt. eigenvalues --    2.13554   2.14428   2.15791   2.16007   2.16465
 Alpha virt. eigenvalues --    2.16924   2.17700   2.17952   2.19185   2.20160
 Alpha virt. eigenvalues --    2.20874   2.21499   2.22199   2.22545   2.23973
 Alpha virt. eigenvalues --    2.24615   2.25567   2.25751   2.27288   2.28118
 Alpha virt. eigenvalues --    2.29082   2.29863   2.31188   2.31997   2.32378
 Alpha virt. eigenvalues --    2.32599   2.33265   2.34047   2.34947   2.35559
 Alpha virt. eigenvalues --    2.36734   2.38008   2.38464   2.39976   2.40854
 Alpha virt. eigenvalues --    2.42035   2.44229   2.44586   2.45721   2.46879
 Alpha virt. eigenvalues --    2.47918   2.48425   2.49963   2.51722   2.52701
 Alpha virt. eigenvalues --    2.53702   2.54784   2.55543   2.55754   2.56630
 Alpha virt. eigenvalues --    2.57375   2.59076   2.59501   2.60876   2.60979
 Alpha virt. eigenvalues --    2.61283   2.62997   2.64493   2.65016   2.66420
 Alpha virt. eigenvalues --    2.67176   2.67766   2.68503   2.69030   2.70741
 Alpha virt. eigenvalues --    2.70893   2.71515   2.71695   2.72180   2.72739
 Alpha virt. eigenvalues --    2.74110   2.74227   2.75253   2.75697   2.76297
 Alpha virt. eigenvalues --    2.76397   2.76689   2.76941   2.77261   2.78759
 Alpha virt. eigenvalues --    2.79550   2.79923   2.80643   2.81041   2.81720
 Alpha virt. eigenvalues --    2.82559   2.82749   2.85121   2.85392   2.86051
 Alpha virt. eigenvalues --    2.86498   2.87213   2.87753   2.87887   2.88541
 Alpha virt. eigenvalues --    2.88795   2.89555   2.90329   2.90778   2.91978
 Alpha virt. eigenvalues --    2.92012   2.92829   2.93026   2.93843   2.94240
 Alpha virt. eigenvalues --    2.95517   2.95600   2.97043   2.97120   2.98318
 Alpha virt. eigenvalues --    2.98919   2.99713   3.00216   3.00990   3.02393
 Alpha virt. eigenvalues --    3.05009   3.05263   3.06719   3.08710   3.10270
 Alpha virt. eigenvalues --    3.11087   3.11563   3.12415   3.13162   3.13937
 Alpha virt. eigenvalues --    3.15254   3.15957   3.16634   3.17287   3.18053
 Alpha virt. eigenvalues --    3.18920   3.20634   3.20843   3.21498   3.22250
 Alpha virt. eigenvalues --    3.22461   3.23146   3.23597   3.23961   3.24206
 Alpha virt. eigenvalues --    3.25067   3.25437   3.26188   3.27042   3.27498
 Alpha virt. eigenvalues --    3.28817   3.29576   3.30237   3.31041   3.31402
 Alpha virt. eigenvalues --    3.32258   3.33980   3.34296   3.34435   3.35358
 Alpha virt. eigenvalues --    3.35976   3.36342   3.37908   3.38786   3.39145
 Alpha virt. eigenvalues --    3.39621   3.40254   3.40923   3.42020   3.42060
 Alpha virt. eigenvalues --    3.42583   3.43877   3.44493   3.45119   3.45621
 Alpha virt. eigenvalues --    3.46064   3.46847   3.47356   3.48473   3.48722
 Alpha virt. eigenvalues --    3.49003   3.50278   3.51408   3.51788   3.52555
 Alpha virt. eigenvalues --    3.53202   3.53506   3.55074   3.56050   3.56461
 Alpha virt. eigenvalues --    3.57424   3.57940   3.57988   3.58602   3.59269
 Alpha virt. eigenvalues --    3.59719   3.60908   3.61728   3.62023   3.63154
 Alpha virt. eigenvalues --    3.64038   3.65078   3.65596   3.67527   3.69328
 Alpha virt. eigenvalues --    3.69967   3.70249   3.71083   3.72430   3.73035
 Alpha virt. eigenvalues --    3.75201   3.75886   3.76791   3.77562   3.78772
 Alpha virt. eigenvalues --    3.79186   3.80734   3.81153   3.83330   3.85635
 Alpha virt. eigenvalues --    3.86216   3.86909   3.88540   3.89235   3.91247
 Alpha virt. eigenvalues --    3.92741   3.94903   3.95805   3.96142   3.97392
 Alpha virt. eigenvalues --    3.99821   4.01214   4.01853   4.04507   4.05021
 Alpha virt. eigenvalues --    4.05796   4.07767   4.08989   4.11746   4.12137
 Alpha virt. eigenvalues --    4.13236   4.15359   4.16613   4.17840   4.18992
 Alpha virt. eigenvalues --    4.20697   4.22077   4.23066   4.23537   4.24008
 Alpha virt. eigenvalues --    4.25952   4.27630   4.28966   4.29870   4.30270
 Alpha virt. eigenvalues --    4.31005   4.31424   4.32030   4.32422   4.33905
 Alpha virt. eigenvalues --    4.34522   4.35261   4.36201   4.37188   4.38187
 Alpha virt. eigenvalues --    4.39297   4.40948   4.42146   4.42836   4.43639
 Alpha virt. eigenvalues --    4.45791   4.46051   4.47929   4.51316   4.51926
 Alpha virt. eigenvalues --    4.53865   4.55388   4.58822   4.61081   4.62047
 Alpha virt. eigenvalues --    4.64220   4.66385   4.70025   4.71900   4.73522
 Alpha virt. eigenvalues --    4.74820   4.75988   4.78354   4.79569   4.80485
 Alpha virt. eigenvalues --    4.82522   4.83050   4.83522   4.87927   4.96430
 Alpha virt. eigenvalues --    4.97695   4.98485   4.99288   5.00422   5.01069
 Alpha virt. eigenvalues --    5.02646   5.07524   5.09195   5.11024   5.12419
 Alpha virt. eigenvalues --    5.14445   5.19320   5.19655   5.23533   5.25167
 Alpha virt. eigenvalues --    5.28493   5.30781   5.32056   5.32662   5.33955
 Alpha virt. eigenvalues --    5.34500   5.36402   5.38536   5.44245   5.46389
 Alpha virt. eigenvalues --    5.48101   5.51400   5.52744   5.54646   5.58403
 Alpha virt. eigenvalues --    5.59707   5.63110   5.66884   5.76923   5.79266
 Alpha virt. eigenvalues --    5.85439   5.95190   6.22254   6.41182   6.60135
 Alpha virt. eigenvalues --    6.66479   6.75292   6.96627   7.19623   7.24562
 Alpha virt. eigenvalues --   10.89638  11.01459  11.50353  22.16118  22.23578
 Alpha virt. eigenvalues --   22.52295  22.60659  22.69625  22.69893  22.71601
 Alpha virt. eigenvalues --   22.74099  22.76657  22.89931  22.93394  22.94740
 Alpha virt. eigenvalues --   22.95944  23.05751  23.30955  23.37429  23.46303
 Alpha virt. eigenvalues --   25.99352  32.22705  44.21374
          Condensed to atoms (all electrons):
               1          2          3          4          5          6
     1  C    6.298260   0.098682  -0.172976   0.185502   0.000507  -0.004997
     2  C    0.098682   5.207104   0.543744  -0.154155   0.002711   0.000031
     3  O   -0.172976   0.543744   8.165519   0.015169   0.002750  -0.000081
     4  C    0.185502  -0.154155   0.015169   5.504817  -0.012304   0.002392
     5  C    0.000507   0.002711   0.002750  -0.012304   4.869734   0.417666
     6  H   -0.004997   0.000031  -0.000081   0.002392   0.417666   0.511919
     7  H    0.015524  -0.000383  -0.000498  -0.018393   0.417824  -0.024038
     8  H   -0.002582  -0.000139   0.000219   0.001944   0.411905  -0.019065
     9  N   -0.057722   0.020917  -0.017314   0.037310   0.231030  -0.035990
    10  H   -0.024344  -0.002832   0.028044  -0.006249  -0.022842   0.005350
    11  H    0.013167  -0.001242   0.000762  -0.004288  -0.018340  -0.006492
    12  C   -0.066189   0.011283   0.001497   0.276480  -0.001012   0.000321
    13  H   -0.022944  -0.000025   0.000039  -0.033683   0.001625  -0.001077
    14  H    0.018271  -0.000245   0.000001  -0.029556  -0.000410  -0.000243
    15  H   -0.000560  -0.000610  -0.000025  -0.047390  -0.000500  -0.000002
    16  C   -0.106471   0.015738  -0.009182   0.242169   0.002080   0.001081
    17  C    0.029377   0.004884  -0.004003  -0.121559  -0.000003  -0.000144
    18  C   -0.001474   0.000149   0.000159   0.007347  -0.000057  -0.000013
    19  C    0.001596  -0.000459  -0.000227  -0.005957  -0.000007   0.000001
    20  C   -0.008101   0.003214   0.000488   0.013965   0.000024  -0.000002
    21  C   -0.043056  -0.013966   0.009217  -0.065232  -0.000308   0.000060
    22  H    0.000829   0.000208   0.000150   0.006374   0.000144   0.000040
    23  H   -0.000003   0.000006  -0.000002  -0.000232  -0.000000  -0.000000
    24  H    0.000004  -0.000003  -0.000006   0.000045   0.000000   0.000000
    25  H   -0.000077   0.000051   0.000026  -0.000015  -0.000000  -0.000000
    26  H    0.010132   0.004033  -0.003404  -0.015206  -0.000036   0.000003
    27  Cl   0.244577  -0.053459   0.005848  -0.074878  -0.004750  -0.000433
    28  C   -0.155149   0.249369  -0.096345   0.022150   0.000114  -0.000033
    29  C    0.042948  -0.144816   0.037675  -0.001565   0.000173   0.000014
    30  C   -0.006579   0.007056  -0.001769  -0.000165   0.000004   0.000000
    31  C    0.002543  -0.007714   0.000798   0.000031   0.000001   0.000000
    32  C   -0.007413   0.014850  -0.001097  -0.000422   0.000011  -0.000000
    33  C    0.017019  -0.096691  -0.000346   0.001615   0.000123  -0.000006
    34  H    0.001837  -0.004581   0.012700  -0.000230   0.000183   0.000005
    35  H    0.000001  -0.000132  -0.000072   0.000002  -0.000000  -0.000000
    36  H    0.000006   0.000051   0.000001   0.000000   0.000000  -0.000000
    37  H    0.000067  -0.000210   0.000007  -0.000002   0.000000   0.000000
    38  H    0.005081  -0.012687   0.000186   0.001286   0.000008  -0.000000
               7          8          9         10         11         12
     1  C    0.015524  -0.002582  -0.057722  -0.024344   0.013167  -0.066189
     2  C   -0.000383  -0.000139   0.020917  -0.002832  -0.001242   0.011283
     3  O   -0.000498   0.000219  -0.017314   0.028044   0.000762   0.001497
     4  C   -0.018393   0.001944   0.037310  -0.006249  -0.004288   0.276480
     5  C    0.417824   0.411905   0.231030  -0.022842  -0.018340  -0.001012
     6  H   -0.024038  -0.019065  -0.035990   0.005350  -0.006492   0.000321
     7  H    0.522695  -0.023168  -0.046209  -0.003074   0.006545  -0.003178
     8  H   -0.023168   0.513521  -0.022453  -0.005823  -0.004902   0.000307
     9  N   -0.046209  -0.022453   6.631642   0.355202   0.341051  -0.014104
    10  H   -0.003074  -0.005823   0.355202   0.411942  -0.021806   0.003875
    11  H    0.006545  -0.004902   0.341051  -0.021806   0.438422  -0.005393
    12  C   -0.003178   0.000307  -0.014104   0.003875  -0.005393   4.993944
    13  H    0.000381   0.000175  -0.003535   0.000056  -0.000234   0.419032
    14  H    0.000105  -0.000034  -0.004541   0.000273   0.000484   0.416634
    15  H   -0.000196   0.000011   0.004349  -0.000218  -0.000012   0.415050
    16  C    0.000571  -0.000592  -0.077481   0.006257  -0.002783  -0.059569
    17  C    0.000036   0.000131   0.010541  -0.002616   0.001215  -0.003128
    18  C   -0.000009   0.000008   0.003090  -0.000117  -0.000775   0.002360
    19  C   -0.000001   0.000001  -0.000099   0.000030   0.000015   0.000049
    20  C    0.000003  -0.000001  -0.000135  -0.000177   0.000010  -0.000082
    21  C   -0.000215  -0.000024  -0.001263   0.002194  -0.000347  -0.005282
    22  H   -0.000082   0.000104   0.004141  -0.000704  -0.000280  -0.004030
    23  H    0.000000  -0.000000   0.000000   0.000009  -0.000013  -0.000021
    24  H    0.000000  -0.000000  -0.000000   0.000000   0.000000   0.000004
    25  H   -0.000000   0.000000   0.000005  -0.000001  -0.000000   0.000004
    26  H   -0.000004   0.000001   0.000429   0.000098  -0.000028  -0.000175
    27  Cl   0.005025   0.000512   0.006031   0.000228  -0.000298  -0.008900
    28  C    0.002732  -0.000027   0.000729   0.001264  -0.000005  -0.000573
    29  C    0.000006   0.000028   0.000421  -0.000256  -0.000025   0.000029
    30  C    0.000019  -0.000001   0.000003   0.000003  -0.000000  -0.000003
    31  C   -0.000011   0.000000  -0.000000  -0.000001  -0.000000   0.000001
    32  C    0.000021  -0.000000   0.000004   0.000005   0.000000  -0.000009
    33  C   -0.000029  -0.000000  -0.000083  -0.000106   0.000005   0.000128
    34  H   -0.000090   0.000039   0.000056   0.000002  -0.000009   0.000011
    35  H   -0.000000  -0.000000   0.000000  -0.000000   0.000000   0.000000
    36  H   -0.000000   0.000000   0.000000   0.000000  -0.000000   0.000000
    37  H    0.000000   0.000000   0.000000  -0.000000  -0.000000  -0.000000
    38  H   -0.000016  -0.000000  -0.000014  -0.000011   0.000001   0.000048
              13         14         15         16         17         18
     1  C   -0.022944   0.018271  -0.000560  -0.106471   0.029377  -0.001474
     2  C   -0.000025  -0.000245  -0.000610   0.015738   0.004884   0.000149
     3  O    0.000039   0.000001  -0.000025  -0.009182  -0.004003   0.000159
     4  C   -0.033683  -0.029556  -0.047390   0.242169  -0.121559   0.007347
     5  C    0.001625  -0.000410  -0.000500   0.002080  -0.000003  -0.000057
     6  H   -0.001077  -0.000243  -0.000002   0.001081  -0.000144  -0.000013
     7  H    0.000381   0.000105  -0.000196   0.000571   0.000036  -0.000009
     8  H    0.000175  -0.000034   0.000011  -0.000592   0.000131   0.000008
     9  N   -0.003535  -0.004541   0.004349  -0.077481   0.010541   0.003090
    10  H    0.000056   0.000273  -0.000218   0.006257  -0.002616  -0.000117
    11  H   -0.000234   0.000484  -0.000012  -0.002783   0.001215  -0.000775
    12  C    0.419032   0.416634   0.415050  -0.059569  -0.003128   0.002360
    13  H    0.518255  -0.020439  -0.023299   0.014657   0.000582  -0.000106
    14  H   -0.020439   0.514666  -0.016629  -0.038166   0.008035   0.000879
    15  H   -0.023299  -0.016629   0.507564   0.003516  -0.003381   0.000088
    16  C    0.014657  -0.038166   0.003516   5.358748   0.245637   0.002545
    17  C    0.000582   0.008035  -0.003381   0.245637   5.302426   0.425758
    18  C   -0.000106   0.000879   0.000088   0.002545   0.425758   4.963691
    19  C    0.000007   0.000143  -0.000121  -0.092330   0.036358   0.415386
    20  C    0.000000  -0.000206   0.000172   0.023294  -0.098948   0.023575
    21  C   -0.000576   0.001331   0.002345   0.404483   0.019556  -0.065048
    22  H    0.000113  -0.000306  -0.000006  -0.096914   0.443862  -0.005253
    23  H   -0.000001  -0.000016   0.000002   0.014046  -0.055769   0.452834
    24  H    0.000000  -0.000000  -0.000001  -0.004281   0.013825  -0.060266
    25  H   -0.000000   0.000000   0.000001   0.014517  -0.004819   0.012066
    26  H    0.000015  -0.000053  -0.000014  -0.053143   0.011320  -0.003507
    27  Cl   0.006168   0.002483   0.002629   0.001108  -0.000952   0.000008
    28  C   -0.000040  -0.000009   0.000012  -0.006439  -0.000644   0.000063
    29  C    0.000011   0.000000  -0.000011  -0.000220   0.000119  -0.000001
    30  C   -0.000001   0.000000   0.000000   0.000018  -0.000001   0.000000
    31  C    0.000000   0.000000   0.000000  -0.000006   0.000000   0.000000
    32  C   -0.000001  -0.000000   0.000000   0.000025  -0.000000  -0.000000
    33  C    0.000004   0.000001   0.000012  -0.000046  -0.000013  -0.000006
    34  H    0.000001   0.000000  -0.000001  -0.000030   0.000015  -0.000000
    35  H   -0.000000  -0.000000   0.000000  -0.000000  -0.000000   0.000000
    36  H    0.000000   0.000000  -0.000000  -0.000000   0.000000   0.000000
    37  H    0.000000  -0.000000  -0.000000   0.000001   0.000000  -0.000000
    38  H   -0.000011  -0.000001   0.000045  -0.000621  -0.000035   0.000001
              19         20         21         22         23         24
     1  C    0.001596  -0.008101  -0.043056   0.000829  -0.000003   0.000004
     2  C   -0.000459   0.003214  -0.013966   0.000208   0.000006  -0.000003
     3  O   -0.000227   0.000488   0.009217   0.000150  -0.000002  -0.000006
     4  C   -0.005957   0.013965  -0.065232   0.006374  -0.000232   0.000045
     5  C   -0.000007   0.000024  -0.000308   0.000144  -0.000000   0.000000
     6  H    0.000001  -0.000002   0.000060   0.000040  -0.000000   0.000000
     7  H   -0.000001   0.000003  -0.000215  -0.000082   0.000000   0.000000
     8  H    0.000001  -0.000001  -0.000024   0.000104  -0.000000  -0.000000
     9  N   -0.000099  -0.000135  -0.001263   0.004141   0.000000  -0.000000
    10  H    0.000030  -0.000177   0.002194  -0.000704   0.000009   0.000000
    11  H    0.000015   0.000010  -0.000347  -0.000280  -0.000013   0.000000
    12  C    0.000049  -0.000082  -0.005282  -0.004030  -0.000021   0.000004
    13  H    0.000007   0.000000  -0.000576   0.000113  -0.000001   0.000000
    14  H    0.000143  -0.000206   0.001331  -0.000306  -0.000016  -0.000000
    15  H   -0.000121   0.000172   0.002345  -0.000006   0.000002  -0.000001
    16  C   -0.092330   0.023294   0.404483  -0.096914   0.014046  -0.004281
    17  C    0.036358  -0.098948   0.019556   0.443862  -0.055769   0.013825
    18  C    0.415386   0.023575  -0.065048  -0.005253   0.452834  -0.060266
    19  C    4.998427   0.395829   0.026773   0.007192  -0.055945   0.457222
    20  C    0.395829   5.027675   0.413788  -0.002134   0.010915  -0.060105
    21  C    0.026773   0.413788   5.127826   0.004213  -0.003832   0.012218
    22  H    0.007192  -0.002134   0.004213   0.498161  -0.006204  -0.000093
    23  H   -0.055945   0.010915  -0.003832  -0.006204   0.507591  -0.006639
    24  H    0.457222  -0.060105   0.012218  -0.000093  -0.006639   0.510115
    25  H   -0.059441   0.460611  -0.061216   0.000024  -0.000056  -0.006900
    26  H    0.009560  -0.044658   0.436260   0.000027   0.000021  -0.000036
    27  Cl   0.000000   0.000066   0.005460  -0.000008  -0.000000  -0.000000
    28  C   -0.000030   0.000711   0.000684   0.000008   0.000000  -0.000001
    29  C    0.000003  -0.000069  -0.000866   0.000001  -0.000000   0.000000
    30  C   -0.000000   0.000003   0.000030   0.000000   0.000000  -0.000000
    31  C    0.000000  -0.000000   0.000007  -0.000000   0.000000   0.000000
    32  C    0.000000   0.000001  -0.000050   0.000000  -0.000000   0.000000
    33  C    0.000018  -0.000034  -0.000240  -0.000001   0.000000  -0.000000
    34  H    0.000000  -0.000003  -0.000045   0.000000  -0.000000   0.000000
    35  H   -0.000000   0.000000   0.000000  -0.000000  -0.000000  -0.000000
    36  H   -0.000000   0.000000  -0.000000   0.000000  -0.000000  -0.000000
    37  H    0.000000  -0.000000  -0.000006   0.000000  -0.000000   0.000000
    38  H    0.000003   0.000063   0.000831  -0.000001   0.000000  -0.000000
              25         26         27         28         29         30
     1  C   -0.000077   0.010132   0.244577  -0.155149   0.042948  -0.006579
     2  C    0.000051   0.004033  -0.053459   0.249369  -0.144816   0.007056
[...]
 000148,0.00002202,0.00000038,0.00001236,-0.00001412,-0.00001288,-0.000
 00648,0.00003456,0.00002083,-0.00001706,-0.00000438,-0.00000310,0.0000
 0037,0.00000472,0.00000218,0.00000076,0.00000260,0.00000212,0.00000016
 ,0.00000020,0.00000504,-0.00000027,0.00000608,-0.00001071,0.00000952,-
 0.00002936,-0.00009939,-0.00004441,0.01080697,-0.00837613,0.01618650,-
 0.09000909,0.04524174,-0.07730392,-0.00473838,0.01306087,-0.02629207,-
 0.00484178,0.00253016,0.00095318,-0.00098072,-0.00019922,0.00046281,-0
 .00198307,0.00059205,0.00374559,0.09066968,0.00042211,0.00011168,-0.00
 007026,-0.00014629,-0.00298158,-0.00130523,-0.00044097,0.00016189,-0.0
 0097133,-0.00013395,0.00008796,-0.00019160,0.00002323,0.00000914,0.000
 02201,-0.00000036,-0.00000189,-0.00000084,-0.00001835,0.00001360,0.000
 00013,-0.00000734,-0.00000382,-0.00000146,-0.00000370,-0.00002806,0.00
 004831,0.00001049,-0.00001192,-0.00000616,-0.00000433,-0.00000284,0.00
 000347,0.00002972,-0.00001211,0.00003119,0.00000232,-0.00000505,-0.000
 00047,0.00000429,-0.00001421,-0.00000507,-0.00000245,0.00000340,0.0000
 0241,-0.00000151,-0.00000978,0.00000116,-0.00000887,0.00000071,-0.0000
 0079,0.00000214,0.00000885,-0.00000044,0.00000750,-0.00000234,0.000003
 57,-0.00000678,-0.00000285,-0.00000291,0.00001242,0.00000597,0.0000014
 9,-0.00000076,-0.00000079,0.00000012,0.00000140,0.00000055,-0.00000034
 ,0.00000049,0.00000041,0.00000002,0.,0.00000099,0.00000040,0.00000166,
 -0.00000143,-0.00000216,-0.00005211,-0.00003819,0.00003968,0.00373505,
 0.00190762,0.00391879,0.04368519,-0.09500878,0.10854897,0.00166770,0.0
 0058587,0.00724957,0.00289688,0.00627442,0.00189170,-0.00029374,-0.000
 68796,-0.00048628,0.00038711,0.00575088,0.00246809,-0.05077804,0.08822
 558,0.00040453,-0.00001166,0.00003773,-0.00278119,-0.00165665,-0.00234
 078,-0.00019586,0.00029053,0.00186299,-0.00006918,0.00000697,-0.000154
 85,0.00001693,0.00000446,0.00001246,-0.00000306,0.00000308,-0.00000076
 ,0.00000749,-0.00001047,-0.00001362,-0.00000349,-0.00000336,-0.0000022
 8,0.00000991,-0.00002723,0.00003679,0.00003296,-0.00002046,0.00000581,
 -0.00000237,-0.00000257,0.00000902,0.00003486,0.00000107,0.00001719,-0
 .00000275,0.00000196,0.00000052,0.00000793,-0.00000773,-0.00000462,-0.
 00000133,0.00000023,0.00000232,-0.00001006,-0.00000882,0.00000826,0.00
 001386,0.00000838,0.00000951,-0.00000124,-0.00001177,0.00000078,-0.000
 00803,0.00000655,-0.00000536,0.00001177,0.00000813,0.00000714,-0.00001
 594,-0.00000706,0.00000662,0.00000018,-0.00000012,-0.00000056,0.000000
 51,0.00000038,-0.00000024,0.00000026,0.00000007,-0.00000021,0.00000011
 ,0.00000001,0.00000025,-0.00001542,-0.00000426,-0.00000276,0.00004652,
 0.00003470,0.00009211,-0.00848160,0.01041582,-0.01582278,-0.07741950,0
 .10817731,-0.25563908,0.00171503,0.00026958,0.00251527,0.00050650,0.00
 182645,0.00259084,0.00058526,-0.00056843,0.00016006,0.00421322,0.00215
 239,-0.00138653,0.08268143,-0.11955817,0.26898563,-0.00096531,0.000169
 98,-0.00004684,0.00070053,-0.00051861,0.00149898,-0.00030932,0.0000237
 3,-0.00030859,0.00042225,-0.00001228,0.00030409,-0.00003712,-0.0000450
 5,-0.00002293,0.00000029,0.00000899,0.00000271,0.00000028,-0.00001619,
 0.00001629,0.00001403,0.00002088,-0.00000675,-0.00014855,0.00015832,-0
 .00017232,0.00003546,-0.00002941,0.00003907,0.00001491,0.00002756,-0.0
 0004034,-0.00005505,-0.00002498,0.00000138,0.00000134,-0.00000053,-0.0
 0000529,-0.00001900,0.00001724,0.00000935,-0.00000923,0.00001147,0.000
 00893,0.00001870,0.00005902,-0.00004326,0.00000518,-0.00001772,0.00000
 187,-0.00000858,-0.00001265,0.00000002,-0.00001768,-0.00000778,-0.0000
 0861,0.00000348,0.00000779,-0.00000309,-0.00002277,-0.00002300,0.00001
 244,0.00000495,0.00000419,0.00000038,-0.00000609,-0.00000308,-0.000001
 09,-0.00000385,-0.00000261,0.00000030,-0.00000077,-0.00000631,0.000000
 51,0.00000729,0.00002127,-0.00000866,0.00001108,0.00006202,0.00003198,
 -0.00476630,0.00307372,-0.00099904,-0.01368131,-0.00610399,0.02438563,
 -0.17050799,-0.02570999,0.13649824,0.01044288,0.00247429,-0.00978522,0
 .00069198,0.00249158,-0.00170999,-0.00050857,0.00028477,-0.00095827,0.
 00091444,-0.00094906,-0.00070267,0.17697854,0.00009045,-0.00000689,0.0
 0006564,0.00021832,0.00025401,-0.00037557,-0.00016176,-0.00003661,0.00
 003653,-0.00003476,-0.00001004,-0.00004811,0.00000690,0.00000392,0.000
 00371,0.00000084,-0.00000064,-0.00000018,-0.00000245,0.00000278,-0.000
 00092,-0.00000200,-0.00000211,0.00000068,0.00000976,-0.00001870,0.0000
 2529,-0.00000170,-0.00000093,-0.00000007,-0.00000080,-0.00000147,0.000
 00389,0.00000255,0.00000922,-0.00000457,-0.00000310,-0.00000192,-0.000
 00058,-0.00000003,-0.00000181,0.00000004,0.00000243,-0.00000363,-0.000
 00168,-0.00000123,-0.00001153,0.00000487,0.00000014,0.00000287,0.00000
 107,0.00000110,0.00000027,-0.00000013,0.00000108,0.,0.00000045,-0.0000
 0077,0.00000065,-0.00000221,-0.00000100,-0.00000098,0.00000260,0.,-0.0
 0000046,-0.00000071,0.00000050,0.00000041,0.00000024,-0.00000010,0.000
 00028,0.00000028,0.00000003,0.00000031,0.00000028,-0.00000258,-0.00000
 183,0.00000151,-0.00000443,-0.00008022,-0.00004459,0.00307441,0.005855
 73,0.00256862,0.00611598,0.00519136,-0.00697725,-0.02578166,-0.0511670
 6,0.04369966,-0.00959512,0.00163736,0.01028622,0.00269441,0.00501787,0
 .00448425,0.00030732,-0.00094392,-0.00020577,-0.00118334,-0.00336583,-
 0.00155349,0.02592669,0.04173244,0.00016276,0.00000718,-0.00003626,-0.
 00049020,0.00020814,0.00019752,0.00015096,-0.00007762,0.00002931,-0.00
 015247,0.00006098,-0.00009617,0.00001222,0.00001354,0.00000728,0.00000
 051,-0.00000310,-0.00000104,-0.00000144,0.00000688,-0.00000450,-0.0000
 0457,-0.00000652,0.00000205,0.00004621,-0.00005110,0.00005644,-0.00001
 420,0.00001035,-0.00001185,-0.00000450,-0.00000855,0.00001220,0.000007
 38,0.00000434,0.00000326,-0.00000102,-0.00000076,0.00000009,0.00000316
 ,-0.00000500,0.00000058,0.00000187,-0.00000369,-0.00000129,0.00000038,
 -0.00001848,0.00001189,-0.00000306,0.00000486,-0.00000016,0.00000296,0
 .00000438,0.00000016,0.00000571,0.00000133,0.00000261,-0.00000203,-0.0
 0000223,0.00000009,0.00000544,0.00000458,-0.00000451,-0.00000124,-0.00
 000135,-0.00000042,0.00000193,0.00000096,0.00000032,0.00000100,0.00000
 087,0.00000013,0.00000019,0.00000170,-0.00000016,-0.00000702,-0.000005
 74,0.00000301,0.00000810,-0.00005581,-0.00001565,-0.00055518,0.0022595
 5,0.00248932,-0.00372992,0.00007605,0.00569819,0.13651560,0.04376776,-
 0.21981824,0.01853923,0.00314507,-0.01453430,-0.00222161,0.00473834,-0
 .00196106,-0.00088213,-0.00013345,-0.00023606,-0.00003445,-0.00181758,
 0.00001891,-0.14758969,-0.05010557,0.22892006,-0.00023883,0.00007566,0
 .00004402,0.00040590,-0.00039807,-0.00013596,-0.00027892,0.00005071,-0
 .00008698,0.00021048,-0.00005806,0.00011912,-0.00001574,-0.00002107,-0
 .00001023,-0.00000015,0.00000442,0.00000154,0.00000016,-0.00000801,0.0
 0000730,0.00000646,0.00000928,-0.00000356,-0.00006776,0.00007608,-0.00
 008390,0.00001904,-0.00001583,0.00001694,0.00000713,0.00001115,-0.0000
 1733,-0.00001472,-0.00000726,0.00000184,0.00000064,-0.00000218,-0.0000
 0175,-0.00000771,0.00000499,0.00000077,-0.00000337,0.00000564,0.000003
 49,0.00000208,0.00002708,-0.00001930,0.00000329,-0.00000721,0.00000084
 ,-0.00000461,-0.00000657,-0.00000021,-0.00000893,-0.00000366,-0.000004
 31,0.00000040,0.00000536,-0.00000179,-0.00000610,-0.00001130,0.0000099
 9,0.00000198,0.00000203,0.00000006,-0.00000299,-0.00000143,-0.00000058
 ,-0.00000211,-0.00000132,-0.00000016,-0.00000021,-0.00000302,0.0000003
 8,0.00001513,0.00001204,-0.00000523,-0.00003859,0.00006430,0.00000468,
 0.00032684,-0.00044531,0.00025766,0.00165667,0.00207220,-0.00121943,-0
 .00536712,0.00151648,0.00190647,-0.31851777,0.07911960,-0.01870432,-0.
 01379255,0.00638436,-0.00439139,-0.00017898,0.00022328,0.00400148,-0.0
 0037461,0.00006124,0.00010872,0.00048597,-0.00090850,-0.00066523,0.335
 95485,0.00033905,-0.00003138,-0.00001304,-0.00020767,-0.00088659,-0.00
 039215,-0.00013916,0.00008557,-0.00017303,-0.00016745,0.00006842,-0.00
 012813,0.00001371,0.00001128,0.00000932,0.00000107,-0.00000195,-0.0000
 0083,-0.00000131,0.00000499,-0.00000443,-0.00000519,-0.00000583,0.0000
 0016,0.00004027,-0.00004351,0.00005627,0.00000426,-0.00000706,-0.00000
 879,-0.00000536,-0.00000696,0.00001549,0.00001386,-0.00000110,0.000009
 18,0.00000144,-0.00000283,0.00000064,0.00000335,-0.00000871,-0.0000012
 8,0.00000147,-0.00000089,0.00000005,0.00000309,-0.00001528,0.00001090,
 -0.00000231,0.00000426,0.00000209,0.00000226,0.00000291,-0.00000016,0.
 00000342,0.00000085,0.00000147,-0.00000172,0.00000016,-0.00000069,0.00
 000448,-0.00000121,-0.00000164,-0.00000099,-0.00000090,-0.00000029,0.0
 0000154,0.00000082,0.00000005,0.00000046,0.00000065,0.00000017,0.00000
 013,0.00000128,0.00000009,-0.00000235,-0.00000108,0.00000120,-0.000028
 10,0.00005536,0.00002552,-0.00047029,-0.00103081,0.00044372,0.00174772
 ,0.00513639,0.00479261,0.01363821,0.00040202,-0.00008703,0.07915179,-0
 .06517990,0.01355698,-0.00575171,0.00529098,-0.00004777,0.00050713,0.0
 0615221,0.00318477,0.00067070,-0.00014029,-0.00003506,-0.00121276,-0.0
 0312294,-0.00178214,-0.08705085,0.05635852,0.00006270,-0.00001418,0.00
 000237,-0.00006484,-0.00050656,-0.00017607,-0.00012430,0.00007038,0.00
 005273,-0.00007107,0.00004404,-0.00004879,0.00000652,0.00000398,0.0000
 0536,0.00000023,0.,-0.00000036,-0.00000003,0.00000056,-0.00000311,-0.0
 0000194,-0.00000202,-0.00000005,0.00001102,-0.00001672,0.00002641,0.00
 001004,-0.00001018,0.00000011,-0.00000237,-0.00000062,0.00000616,0.000
 00358,-0.00000322,0.00000519,0.00000032,0.00000034,-0.00000012,0.00000
 146,-0.00000232,0.00000043,-0.00000015,-0.00000019,0.00000071,0.000004
 67,-0.00000517,0.00000520,0.00000140,0.00000129,0.00000239,0.00000090,
 -0.00000101,0.00000024,-0.00000036,0.00000141,-0.00000036,0.00000293,0
 .00000037,0.00000084,-0.00000557,-0.00000279,-0.00000233,0.00000027,-0
 .00000024,-0.00000007,0.00000052,0.00000027,0.,0.00000032,0.00000020,0
 .00000026,0.00000003,0.00000042,0.,-0.00001375,-0.00000253,-0.00000031
 ,0.00002104,0.00002170,0.00002268,0.00011762,-0.00002693,-0.00113306,-
 0.00076090,0.00480359,-0.00304500,-0.02629191,0.00714730,0.00286414,-0
 .01872517,0.01345467,-0.05888852,0.02385316,-0.00715269,0.00636588,0.0
 0361909,0.00337840,-0.00221513,-0.00120792,0.00032026,-0.00003876,0.00
 006171,-0.00195952,0.00029092,0.01939388,-0.01752496,0.05559537,-0.000
 64474,0.00000060,0.00013959,0.00125827,0.00035533,-0.00107447,-0.00078
 289,-0.00014179,-0.00035762,0.00040667,-0.00012807,0.00027356,-0.00003
 162,-0.00003982,-0.00001739,0.00000068,0.00000816,0.00000272,0.0000006
 9,-0.00001352,0.00001316,0.00001261,0.00001697,-0.00000552,-0.00011799
 ,0.00013311,-0.00015022,0.00003014,-0.00003090,0.00002916,0.00001497,0
 .00001839,-0.00003207,-0.00002851,-0.00000854,-0.00000885,-0.00000213,
 0.00000185,-0.00000263,-0.00001191,0.00001525,0.00000275,-0.00000582,0
 .00000779,0.00000543,0.00001176,0.00005074,-0.00002958,0.00000584,-0.0
 0001362,0.00000237,-0.00000721,-0.00001135,-0.00000049,-0.00001512,-0.
 00000523,-0.00000726,0.00000526,0.00000695,0.00000025,-0.00002190,-0.0
 0001792,0.00001165,0.00000430,0.00000315,0.00000027,-0.00000484,-0.000
 00263,-0.00000088,-0.00000287,-0.00000214,-0.00000019,-0.00000091,-0.0
 0000569,0.00000013,0.00000720,0.00001603,-0.00000805,0.00003711,0.0000
 3321,0.00000350,-0.00501596,0.00328055,0.00085458,-0.00114941,-0.00021
 431,0.00057000,-0.00162304,0.00069463,0.00389759,0.01061923,-0.0096493
 5,0.01780954,-0.08855134,0.04544433,-0.07393331,-0.00494014,0.01389105
 ,-0.02626796,0.00005845,-0.00023304,-0.00018746,0.00034222,-0.00043190
 ,0.00089040,0.00062490,-0.00079051,-0.00102097,0.08871623,0.00030863,-
 0.00007226,-0.00003504,-0.00056841,0.00019877,0.00035951,0.00053510,-0
 .00006509,0.00016861,-0.00018068,0.00004937,-0.00011657,0.00001664,0.0
 0001727,0.00000896,0.00000003,-0.00000426,-0.00000107,-0.00000022,0.00
 000654,-0.00000566,-0.00000603,-0.00000782,0.00000254,0.00005370,-0.00
 006533,0.00006893,-0.00001734,0.00002027,-0.00001482,-0.00000603,-0.00
 000886,0.00001317,0.00001793,0.00000727,0.00000176,-0.00000129,0.00000
 013,0.00000178,0.00000701,-0.00000618,-0.00000153,0.00000273,-0.000004
 52,-0.00000291,-0.00000181,-0.00002489,0.00001311,-0.00000320,0.000006
 06,-0.00000047,0.00000365,0.00000604,-0.00000084,0.00000765,0.00000177
 ,0.00000451,-0.00000363,-0.00000294,-0.00000232,0.00000969,0.00000546,
 -0.00000286,-0.00000200,-0.00000165,-0.00000007,0.00000242,0.00000122,
 0.00000057,0.00000123,0.00000112,-0.00000001,-0.00000008,0.00000237,0.
 00000037,-0.00000237,-0.00000677,0.00000538,0.00000133,-0.00004932,-0.
 00000392,0.00314697,0.00584148,0.00184100,-0.00041700,-0.00062607,-0.0
 0074773,0.00054641,0.00623551,0.00273912,0.00271439,0.00147351,0.00312
 858,0.04543825,-0.10050309,0.11371799,0.00154773,-0.00010079,0.0076538
 9,-0.00019889,-0.00092592,-0.00030742,0.00014179,-0.00003071,0.0001867
 7,-0.00108556,-0.00317034,-0.00165130,-0.05092390,0.09503595,-0.000306
 10,0.00005129,0.00005590,0.00068247,-0.00017229,0.00002179,-0.00014044
 ,0.00005253,-0.00010109,0.00022790,-0.00007117,0.00014153,-0.00001692,
 -0.00002144,-0.00001116,-0.00000003,0.00000431,0.00000168,0.00000058,-
 0.00000804,0.00000771,0.00000696,0.00000967,-0.00000300,-0.00007292,0.
 00007561,-0.00008460,0.00001763,-0.00001227,0.00001740,0.00000758,0.00
 001271,-0.00002021,-0.00001704,-0.00000534,-0.00000175,0.,-0.00000054,
 -0.00000142,-0.00000706,0.00000734,0.00000080,-0.00000328,0.00000508,0
 .00000256,0.00000268,0.00002686,-0.00001928,0.00000332,-0.00000787,0.0
 0000064,-0.00000426,-0.00000622,-0.00000053,-0.00000844,-0.00000358,-0
 .00000362,0.00000098,0.00000456,-0.00000205,-0.00000955,-0.00001004,0.
 00000794,0.00000228,0.00000196,0.00000037,-0.00000285,-0.00000149,-0.0
 0000045,-0.00000188,-0.00000125,-0.00000017,-0.00000054,-0.00000327,0.
 00000039,0.00001151,0.00001030,-0.00000394,-0.00002529,0.00004578,0.00
 001543,0.00041765,0.00204482,0.00269246,0.00048992,-0.00060301,-0.0000
 0461,0.00444645,0.00262173,-0.00091963,-0.01027867,0.01066480,-0.01459
 873,-0.07404151,0.11366389,-0.25258467,0.00166325,0.00024612,0.0020527
 0,-0.00018455,-0.00035997,-0.00019378,-0.00048204,0.00050867,-0.000851
 87,-0.00029827,-0.00186555,0.00020911,0.07871307,-0.12524547,0.2641929
 2,0.00077938,0.00005320,0.00047334,0.00015606,-0.00093582,-0.00130901,
 0.00013251,0.00021375,0.00015705,-0.00060594,0.00011463,-0.00032422,0.
 00006694,0.00005350,0.00003799,0.00000174,-0.00001091,-0.00000201,-0.0
 0001068,0.00002095,-0.00001656,-0.00002645,-0.00002719,0.00000407,0.00
 020505,-0.00024438,0.00028861,-0.00000473,-0.00000062,-0.00004369,-0.0
 0001898,-0.00003304,0.00006468,0.00002243,0.00004525,-0.00003648,0.000
 00162,-0.00001909,0.00000331,0.00001150,-0.00002053,-0.00000236,0.0000
 1910,-0.00002106,-0.00001410,0.00002191,-0.00007204,0.00008099,-0.0000
 0523,0.00000236,0.00000285,0.00001651,0.00001074,0.00000224,0.00002422
 ,0.00002357,0.00000671,0.00005155,-0.00003142,0.00002308,-0.00011572,0
 .00005049,-0.00007655,0.00000365,-0.00000695,0.00000136,0.00000878,0.0
 0000310,0.00000235,0.00000992,0.00000365,0.00000454,0.00000043,0.00000
 974,-0.00000086,-0.00019015,-0.00006154,-0.00002310,-0.00039388,0.0009
 9610,-0.00017040,0.00963921,0.00212783,-0.00835859,0.00039114,0.002602
 46,-0.00159964,-0.00038751,0.00015353,-0.00072127,-0.00413373,0.003731
 56,-0.00102457,-0.01355057,-0.00584818,0.02438698,-0.16887892,-0.02493
 599,0.13583581,0.00035618,0.00013073,-0.00049683,-0.00002831,-0.000335
 67,0.00000397,-0.00080011,-0.00031169,0.00111783,0.00080181,-0.0010848
 5,-0.00079261,0.17642929,0.00092706,0.00004966,0.00020841,-0.00015483,
 -0.00331076,-0.00115343,-0.00096490,0.00036417,-0.00083264,0.00021280,
 -0.00005519,-0.00008529,-0.00001358,-0.00002974,-0.00001923,0.00000342
 ,0.00000541,0.00000226,-0.00000548,-0.00000613,0.00001454,0.00000476,0
 .00001464,-0.00001103,-0.00011618,0.00014698,-0.00016088,0.00003767,-0
 .00003619,0.00002440,0.00000826,0.00001494,-0.00002031,-0.00000493,-0.
 00002277,0.00004356,0.00001348,-0.00002703,-0.00000345,-0.00001933,-0.
 00001749,-0.00000745,-0.00000386,0.00002031,0.00001045,0.00002763,0.00
 004311,-0.00001861,0.00000311,-0.00002231,0.00000452,-0.00000483,-0.00
 001132,0.00000299,-0.00001704,-0.00000568,-0.00000709,0.00001363,0.000
 00330,-0.00001319,-0.00004551,-0.00004326,0.00000596,0.00000512,0.0000
 0202,0.00000107,-0.00000415,-0.00000285,-0.00000158,-0.00000278,-0.000
 00174,0.00000227,-0.00000168,-0.00000510,0.00000199,-0.00007221,0.0000
 2898,-0.00000236,-0.00006584,-0.00052120,0.00010053,-0.01037886,0.0019
 6026,0.01017429,0.00246214,0.00441813,0.00447082,0.00049472,-0.0011344
 4,0.00000702,0.00343736,0.00585223,0.00231496,0.00577243,0.00560515,-0
 .00715209,-0.02344405,-0.05064676,0.04208960,-0.00046353,0.00009614,0.
 00058665,-0.00028929,-0.00089927,-0.00042495,0.00030932,0.00008291,-0.
 00036606,-0.00131387,-0.00323330,-0.00165920,0.02365383,0.04132416,0.0
 0012547,-0.00038007,0.00013535,0.00203631,-0.00182994,-0.00019919,-0.0
 0083391,0.00017355,-0.00054573,-0.00077816,0.00040295,-0.00038070,0.00
 006245,0.00005732,0.00005317,0.00000273,-0.00000663,-0.00000525,0.0000
 0001,0.00001684,-0.00003378,-0.00002060,-0.00002417,0.00000746,0.00016
 587,-0.00022898,0.00030969,0.00004798,-0.00005981,-0.00002117,-0.00002
 430,-0.00001438,0.00006270,-0.00000337,-0.00000289,-0.00000838,0.00000
 818,0.00001219,0.00000413,0.00001457,-0.00000715,0.00000491,0.00001088
 ,-0.00000949,-0.00000832,0.00007550,-0.00007788,0.00008612,0.00000735,
 0.00001274,0.00001584,0.00001927,0.00000304,0.00000423,0.00001458,0.00
 002391,0.00000559,0.00004902,-0.00002473,0.00001807,-0.00006753,0.0000
 1381,-0.00005426,0.00000200,-0.00000689,0.00000187,0.00000930,0.000003
 59,0.00000113,0.00000984,0.00000375,0.00000357,-0.00000014,0.00000972,
 -0.00000046,-0.00023205,-0.00004000,0.00003212,0.00038253,-0.00025427,
 0.00042774,0.01681451,0.00337059,-0.01534987,-0.00235422,0.00438173,-0
 .00217430,-0.00080404,-0.00018004,-0.00001359,-0.00045652,0.00236611,0
 .00233416,-0.00379650,0.00037845,0.00603337,0.13640254,0.04204859,-0.2
 2029904,0.00091858,0.00022973,-0.00077325,0.00002084,-0.00041358,-0.00
 017078,-0.00022922,-0.00004370,0.00009553,-0.00011482,-0.00177654,-0.0
 0001475,-0.14748490,-0.04812745,0.23041608\\0.00000029,0.00000039,-0.0
 0000038,-0.00000013,-0.00000026,-0.00000013,-0.00000021,-0.00000067,0.
 00000037,-0.00000021,0.00000053,-0.00000052,-0.00000010,-0.00000033,-0
 .00000206,-0.00000008,-0.00000040,-0.00000213,0.00000025,-0.00000070,-
 0.00000197,-0.00000006,-0.00000146,-0.00000202,-0.00000052,-0.00000094
 ,-0.00000109,-0.00000002,-0.00000126,-0.00000045,-0.00000001,-0.000001
 03,-0.00000083,0.00000078,0.00000109,-0.00000092,-0.00000065,0.0000012
 5,-0.00000178,0.00000017,0.00000101,-0.00000103,0.00000032,0.00000174,
 -0.00000071,0.00000019,0.00000018,0.00000062,-0.00000017,-0.00000009,0
 .00000055,-0.00000013,-0.00000002,0.00000128,-0.00000020,0.00000034,0.
 00000202,0.00000004,0.00000027,0.00000217,-0.00000004,0.00000028,0.000
 00134,0.00000021,0.00000010,-0.00000026,-0.00000017,-0.00000029,0.0000
 0138,-0.00000015,0.00000010,0.00000277,-0.00000006,0.00000064,0.000002
 67,0.00000020,0.00000088,0.00000114,0.00000086,0.00000100,-0.00000125,
 -0.00000003,-0.00000020,-0.00000002,-0.00000007,-0.00000131,-0.0000004
 6,-0.00000011,-0.00000091,-0.00000018,-0.00000005,-0.00000013,0.000000
 24,0.00000003,0.00000049,0.00000039,0.,0.00000062,0.00000043,-0.000000
 20,-0.00000146,-0.00000049,-0.00000025,-0.00000150,-0.00000036,-0.0000
 0005,-0.00000019,0.00000029,0.00000018,0.00000112,0.00000076,0.0000001
 9,0.00000111,0.00000062\\\@


 ALL THINGS ARE POSSIBLE EXCEPT SKIING THROUGH A REVOLVING DOOR.
 Job cpu time:       1 days 16 hours 35 minutes 44.9 seconds.
 Elapsed time:       0 days  2 hours 41 minutes 18.9 seconds.
 File lengths (MBytes):  RWF=   1872 Int=      0 D2E=      0 Chk=     60 Scr=      1
 Normal termination of Gaussian 16 at Mon Feb 15 08:05:56 2021.
