 Entering Gaussian System, Link 0=g16
 Initial command:
 /apps/skylake/gaussian/16/A.03/g16/l1.exe "/beegfs/scratch/user/q/tla25/Gau-41025.inp" -scrdir="/beegfs/scratch/user/q/tla25/"
 Entering Link 1 = /apps/skylake/gaussian/16/A.03/g16/l1.exe PID=     41026.
  
 Copyright (c) 1988,1990,1992,1993,1995,1998,2003,2009,2016,
            Gaussian, Inc.  All Rights Reserved.
  
 This is part of the Gaussian(R) 16 program.  It is based on
 the Gaussian(R) 09 system (copyright 2009, Gaussian, Inc.),
 the Gaussian(R) 03 system (copyright 2003, Gaussian, Inc.),
 the Gaussian(R) 98 system (copyright 1998, Gaussian, Inc.),
 the Gaussian(R) 94 system (copyright 1995, Gaussian, Inc.),
 the Gaussian 92(TM) system (copyright 1992, Gaussian, Inc.),
 the Gaussian 90(TM) system (copyright 1990, Gaussian, Inc.),
 the Gaussian 88(TM) system (copyright 1988, Gaussian, Inc.),
 the Gaussian 86(TM) system (copyright 1986, Carnegie Mellon
 University), and the Gaussian 82(TM) system (copyright 1983,
 Carnegie Mellon University). Gaussian is a federally registered
 trademark of Gaussian, Inc.
  
 This software contains proprietary and confidential information,
 including trade secrets, belonging to Gaussian, Inc.
  
 This software is provided under written license and may be
 used, copied, transmitted, or stored only in accord with that
 written license.
  
 The following legend is applicable only to US Government
 contracts under FAR:
  
                    RESTRICTED RIGHTS LEGEND
  
 Use, reproduction and disclosure by the US Government is
 subject to restrictions as set forth in subparagraphs (a)
 and (c) of the Commercial Computer Software - Restricted
 Rights clause in FAR 52.227-19.
  
 Gaussian, Inc.
 340 Quinnipiac St., Bldg. 40, Wallingford CT 06492
  
  
 ---------------------------------------------------------------
 Warning -- This program may not be used in any manner that
 competes with the business of Gaussian, Inc. or will provide
 assistance to any competitor of Gaussian, Inc.  The licensee
 of this program is prohibited from giving any competitor of
 Gaussian, Inc. access to this program.  By using this program,
 the user acknowledges that Gaussian, Inc. is engaged in the
 business of creating and licensing software in the field of
 computational chemistry and represents and warrants to the
 licensee that it is not a competitor of Gaussian, Inc. and that
 it will not use this program in any manner prohibited above.
 ---------------------------------------------------------------
  

 Cite this work as:
 Gaussian 16, Revision A.03,
 M. J. Frisch, G. W. Trucks, H. B. Schlegel, G. E. Scuseria, 
 M. A. Robb, J. R. Cheeseman, G. Scalmani, V. Barone, 
 G. A. Petersson, H. Nakatsuji, X. Li, M. Caricato, A. V. Marenich, 
 J. Bloino, B. G. Janesko, R. Gomperts, B. Mennucci, H. P. Hratchian, 
 J. V. Ortiz, A. F. Izmaylov, J. L. Sonnenberg, D. Williams-Young, 
 F. Ding, F. Lipparini, F. Egidi, J. Goings, B. Peng, A. Petrone, 
 T. Henderson, D. Ranasinghe, V. G. Zakrzewski, J. Gao, N. Rega, 
 G. Zheng, W. Liang, M. Hada, M. Ehara, K. Toyota, R. Fukuda, 
 J. Hasegawa, M. Ishida, T. Nakajima, Y. Honda, O. Kitao, H. Nakai, 
 T. Vreven, K. Throssell, J. A. Montgomery, Jr., J. E. Peralta, 
 F. Ogliaro, M. J. Bearpark, J. J. Heyd, E. N. Brothers, K. N. Kudin, 
 V. N. Staroverov, T. A. Keith, R. Kobayashi, J. Normand, 
 K. Raghavachari, A. P. Rendell, J. C. Burant, S. S. Iyengar, 
 J. Tomasi, M. Cossi, J. M. Millam, M. Klene, C. Adamo, R. Cammi, 
 J. W. Ochterski, R. L. Martin, K. Morokuma, O. Farkas, 
 J. B. Foresman, and D. J. Fox, Gaussian, Inc., Wallingford CT, 2016.
 
 ******************************************
 Gaussian 16:  ES64L-G16RevA.03 25-Dec-2016
                13-Apr-2021 
 ******************************************
 %nprocshared=24
 Will use up to   24 processors via shared memory.
 %mem=140GB
 ----------------------------------------------------------------------
 # wB97XD def2tzvp, opt=(ts, noeigen, calcfc, maxcycles=70, maxstep=3),
  freq=noraman, scrf=(iefpcm, solvent=water)
 ----------------------------------------------------------------------
 1/5=1,6=70,8=3,10=4,11=1,18=20,26=3,38=1/1,3;
 2/9=110,12=2,17=6,18=5,40=1/2;
 3/5=44,7=101,11=2,25=1,30=1,70=2201,71=2,72=1,74=-58,140=1/1,2,3;
 4//1;
 5/5=2,38=5,53=1/2;
 8/6=4,10=90,11=11/1;
 11/6=1,8=1,9=11,15=111,16=1/1,2,10;
 10/6=1,13=1/2;
 6/7=2,8=2,9=2,10=2,28=1/1;
 7/10=1,18=20,25=1/1,2,3,16;
 1/5=1,6=70,8=3,10=4,11=1,18=20,26=3/3(2);
 2/9=110/2;
 99//99;
 2/9=110/2;
 3/5=44,7=101,11=2,25=1,30=1,70=2205,71=1,72=1,74=-58/1,2,3;
 4/5=5,16=3,69=1/1;
 5/5=2,38=5,53=1/2;
 7//1,2,3,16;
 1/5=1,6=70,8=3,11=1,18=20,26=3/3(-5);
 2/9=110/2;
 6/7=2,8=2,9=2,10=2,19=2,28=1/1;
 99/9=1/99;
 ------------------------
 0_iteration/TS-594-0.out
 ------------------------
 Symbolic Z-matrix:
 Charge =  0 Multiplicity = 1
 C                     0.54111  -0.26312  -0.40243 
 C                     1.61547   0.20025   0.53896 
 O                     1.65783  -0.19076   1.6877 
 C                    -0.71044   0.29022  -0.46876 
 C                    -1.84076  -1.3185    1.51185 
 H                    -2.5304   -1.80884   0.82823 
 H                    -0.86831  -1.80356   1.45238 
 H                    -2.2239   -1.40872   2.5283 
 N                    -1.67961   0.08258   1.12262 
 H                    -2.57286   0.5644    1.0993 
 H                    -1.09915   0.56407   1.80097 
 C                    -1.73459  -0.18971  -1.46078 
 H                    -2.69321   0.30034  -1.3021 
 H                    -1.39171   0.03313  -2.47074 
 H                    -1.86885  -1.26679  -1.37584 
 Cl                   -0.68598   2.10062  -0.36212 
 Cl                    0.78918  -1.93787  -0.90828 
 C                     2.66674   1.11649  -0.01667 
 H                     2.19543   1.97561  -0.49498 
 H                     3.36009   1.44011   0.75754 
 H                     3.20797   0.57768  -0.7992 
 
 Add virtual bond connecting atoms N9         and C4         Dist= 3.54D+00.

 GradGradGradGradGradGradGradGradGradGradGradGradGradGradGradGradGradGrad
 Berny optimization.
 Initialization pass.
                           ----------------------------
                           !    Initial Parameters    !
                           ! (Angstroms and Degrees)  !
 --------------------------                            --------------------------
 ! Name  Definition              Value          Derivative Info.                !
 --------------------------------------------------------------------------------
 ! R1    R(1,2)                  1.5017         calculate D2E/DX2 analytically  !
 ! R2    R(1,4)                  1.37           calculate D2E/DX2 analytically  !
 ! R3    R(1,17)                 1.767          calculate D2E/DX2 analytically  !
 ! R4    R(2,3)                  1.2142         calculate D2E/DX2 analytically  !
 ! R5    R(2,18)                 1.5011         calculate D2E/DX2 analytically  !
 ! R6    R(4,9)                  1.8748         calculate D2E/DX2 analytically  !
 ! R7    R(4,12)                 1.5044         calculate D2E/DX2 analytically  !
 ! R8    R(4,16)                 1.8137         calculate D2E/DX2 analytically  !
 ! R9    R(5,6)                  1.0878         calculate D2E/DX2 analytically  !
 ! R10   R(5,7)                  1.0883         calculate D2E/DX2 analytically  !
 ! R11   R(5,8)                  1.09           calculate D2E/DX2 analytically  !
 ! R12   R(5,9)                  1.463          calculate D2E/DX2 analytically  !
 ! R13   R(9,10)                 1.0152         calculate D2E/DX2 analytically  !
 ! R14   R(9,11)                 1.0144         calculate D2E/DX2 analytically  !
 ! R15   R(12,13)                1.0882         calculate D2E/DX2 analytically  !
 ! R16   R(12,14)                1.0896         calculate D2E/DX2 analytically  !
 ! R17   R(12,15)                1.0887         calculate D2E/DX2 analytically  !
 ! R18   R(18,19)                1.0904         calculate D2E/DX2 analytically  !
 ! R19   R(18,20)                1.0885         calculate D2E/DX2 analytically  !
 ! R20   R(18,21)                1.0934         calculate D2E/DX2 analytically  !
 ! A1    A(2,1,4)              124.0059         calculate D2E/DX2 analytically  !
 ! A2    A(2,1,17)             111.8066         calculate D2E/DX2 analytically  !
 ! A3    A(4,1,17)             119.815          calculate D2E/DX2 analytically  !
 ! A4    A(1,2,3)              121.243          calculate D2E/DX2 analytically  !
 ! A5    A(1,2,18)             117.2145         calculate D2E/DX2 analytically  !
 ! A6    A(3,2,18)             121.4874         calculate D2E/DX2 analytically  !
 ! A7    A(1,4,9)              112.7315         calculate D2E/DX2 analytically  !
 ! A8    A(1,4,12)             121.6659         calculate D2E/DX2 analytically  !
 ! A9    A(1,4,16)             112.8294         calculate D2E/DX2 analytically  !
 ! A10   A(9,4,12)              99.9314         calculate D2E/DX2 analytically  !
 ! A11   A(9,4,16)              93.877          calculate D2E/DX2 analytically  !
 ! A12   A(12,4,16)            111.4926         calculate D2E/DX2 analytically  !
 ! A13   A(6,5,7)              109.3429         calculate D2E/DX2 analytically  !
 ! A14   A(6,5,8)              109.0184         calculate D2E/DX2 analytically  !
 ! A15   A(6,5,9)              109.5301         calculate D2E/DX2 analytically  !
 ! A16   A(7,5,8)              109.156          calculate D2E/DX2 analytically  !
 ! A17   A(7,5,9)              108.2918         calculate D2E/DX2 analytically  !
 ! A18   A(8,5,9)              111.4735         calculate D2E/DX2 analytically  !
 ! A19   A(4,9,5)              112.8814         calculate D2E/DX2 analytically  !
 ! A20   A(4,9,10)             112.5068         calculate D2E/DX2 analytically  !
 ! A21   A(4,9,11)             102.6655         calculate D2E/DX2 analytically  !
 ! A22   A(5,9,10)             111.3281         calculate D2E/DX2 analytically  !
 ! A23   A(5,9,11)             109.8578         calculate D2E/DX2 analytically  !
 ! A24   A(10,9,11)            107.0728         calculate D2E/DX2 analytically  !
 ! A25   A(4,12,13)            111.0918         calculate D2E/DX2 analytically  !
 ! A26   A(4,12,14)            109.3741         calculate D2E/DX2 analytically  !
 ! A27   A(4,12,15)            110.3712         calculate D2E/DX2 analytically  !
 ! A28   A(13,12,14)           108.6785         calculate D2E/DX2 analytically  !
 ! A29   A(13,12,15)           108.9951         calculate D2E/DX2 analytically  !
 ! A30   A(14,12,15)           108.267          calculate D2E/DX2 analytically  !
 ! A31   A(2,18,19)            109.9111         calculate D2E/DX2 analytically  !
 ! A32   A(2,18,20)            111.3634         calculate D2E/DX2 analytically  !
 ! A33   A(2,18,21)            108.1057         calculate D2E/DX2 analytically  !
 ! A34   A(19,18,20)           110.675          calculate D2E/DX2 analytically  !
 ! A35   A(19,18,21)           106.7541         calculate D2E/DX2 analytically  !
 ! A36   A(20,18,21)           109.891          calculate D2E/DX2 analytically  !
 ! D1    D(4,1,2,3)             83.3286         calculate D2E/DX2 analytically  !
 ! D2    D(4,1,2,18)           -99.3323         calculate D2E/DX2 analytically  !
 ! D3    D(17,1,2,3)           -73.0103         calculate D2E/DX2 analytically  !
 ! D4    D(17,1,2,18)          104.3289         calculate D2E/DX2 analytically  !
 ! D5    D(2,1,4,9)            -63.244          calculate D2E/DX2 analytically  !
 ! D6    D(2,1,4,12)           178.1939         calculate D2E/DX2 analytically  !
 ! D7    D(2,1,4,16)            41.5833         calculate D2E/DX2 analytically  !
 ! D8    D(17,1,4,9)            91.3232         calculate D2E/DX2 analytically  !
 ! D9    D(17,1,4,12)          -27.2389         calculate D2E/DX2 analytically  !
 ! D10   D(17,1,4,16)         -163.8496         calculate D2E/DX2 analytically  !
 ! D11   D(1,2,18,19)           53.5438         calculate D2E/DX2 analytically  !
 ! D12   D(1,2,18,20)          176.5619         calculate D2E/DX2 analytically  !
 ! D13   D(1,2,18,21)          -62.6236         calculate D2E/DX2 analytically  !
 ! D14   D(3,2,18,19)         -129.1241         calculate D2E/DX2 analytically  !
 ! D15   D(3,2,18,20)           -6.1059         calculate D2E/DX2 analytically  !
 ! D16   D(3,2,18,21)          114.7086         calculate D2E/DX2 analytically  !
 ! D17   D(1,4,9,5)            -58.0801         calculate D2E/DX2 analytically  !
 ! D18   D(1,4,9,10)           174.893          calculate D2E/DX2 analytically  !
 ! D19   D(1,4,9,11)            60.132          calculate D2E/DX2 analytically  !
 ! D20   D(12,4,9,5)            72.5514         calculate D2E/DX2 analytically  !
 ! D21   D(12,4,9,10)          -54.4755         calculate D2E/DX2 analytically  !
 ! D22   D(12,4,9,11)         -169.2365         calculate D2E/DX2 analytically  !
 ! D23   D(16,4,9,5)          -174.8251         calculate D2E/DX2 analytically  !
 ! D24   D(16,4,9,10)           58.148          calculate D2E/DX2 analytically  !
 ! D25   D(16,4,9,11)          -56.613          calculate D2E/DX2 analytically  !
 ! D26   D(1,4,12,13)          174.6258         calculate D2E/DX2 analytically  !
 ! D27   D(1,4,12,14)          -65.408          calculate D2E/DX2 analytically  !
 ! D28   D(1,4,12,15)           53.6046         calculate D2E/DX2 analytically  !
 ! D29   D(9,4,12,13)           49.9517         calculate D2E/DX2 analytically  !
 ! D30   D(9,4,12,14)          169.918          calculate D2E/DX2 analytically  !
 ! D31   D(9,4,12,15)          -71.0694         calculate D2E/DX2 analytically  !
 ! D32   D(16,4,12,13)         -48.2534         calculate D2E/DX2 analytically  !
 ! D33   D(16,4,12,14)          71.7129         calculate D2E/DX2 analytically  !
 ! D34   D(16,4,12,15)        -169.2745         calculate D2E/DX2 analytically  !
 ! D35   D(6,5,9,4)            -70.7855         calculate D2E/DX2 analytically  !
 ! D36   D(6,5,9,10)            56.863          calculate D2E/DX2 analytically  !
 ! D37   D(6,5,9,11)           175.2949         calculate D2E/DX2 analytically  !
 ! D38   D(7,5,9,4)             48.3842         calculate D2E/DX2 analytically  !
 ! D39   D(7,5,9,10)           176.0327         calculate D2E/DX2 analytically  !
 ! D40   D(7,5,9,11)           -65.5355         calculate D2E/DX2 analytically  !
 ! D41   D(8,5,9,4)            168.478          calculate D2E/DX2 analytically  !
 ! D42   D(8,5,9,10)           -63.8735         calculate D2E/DX2 analytically  !
 ! D43   D(8,5,9,11)            54.5584         calculate D2E/DX2 analytically  !
 --------------------------------------------------------------------------------
 Trust Radius=3.00D-02 FncErr=1.00D-07 GrdErr=1.00D-06 EigMax=2.50D+02 EigMin=1.00D-04
 Number of steps in this run=     70 maximum allowed number of steps=    126.
 Search for a saddle point of order  1.
 GradGradGradGradGradGradGradGradGradGradGradGradGradGradGradGradGradGrad

                          Input orientation:                          
 ---------------------------------------------------------------------
 Center     Atomic      Atomic             Coordinates (Angstroms)
 Number     Number       Type             X           Y           Z
 ---------------------------------------------------------------------
      1          6           0        0.541110   -0.263120   -0.402430
      2          6           0        1.615470    0.200250    0.538960
      3          8           0        1.657830   -0.190760    1.687700
      4          6           0       -0.710440    0.290220   -0.468760
      5          6           0       -1.840760   -1.318500    1.511850
      6          1           0       -2.530400   -1.808840    0.828230
      7          1           0       -0.868310   -1.803560    1.452380
      8          1           0       -2.223900   -1.408720    2.528300
      9          7           0       -1.679610    0.082580    1.122620
     10          1           0       -2.572860    0.564400    1.099300
     11          1           0       -1.099150    0.564070    1.800970
     12          6           0       -1.734590   -0.189710   -1.460780
     13          1           0       -2.693210    0.300340   -1.302100
     14          1           0       -1.391710    0.033130   -2.470740
     15          1           0       -1.868850   -1.266790   -1.375840
     16         17           0       -0.685980    2.100620   -0.362120
     17         17           0        0.789180   -1.937870   -0.908280
     18          6           0        2.666740    1.116490   -0.016670
     19          1           0        2.195430    1.975610   -0.494980
     20          1           0        3.360090    1.440110    0.757540
     21          1           0        3.207970    0.577680   -0.799200
 ---------------------------------------------------------------------
                    Distance matrix (angstroms):
                    1          2          3          4          5
     1  C    0.000000
     2  C    1.501724   0.000000
     3  O    2.370853   1.214202   0.000000
     4  C    1.370023   2.536425   3.238883   0.000000
     5  C    3.232893   3.898544   3.680062   2.790774   0.000000
     6  H    3.652116   4.616098   4.571449   3.066022   1.087829
     7  H    2.792802   3.319451   3.006307   2.845983   1.088338
     8  H    4.188897   4.613786   4.154258   3.762888   1.090003
     9  N    2.716042   3.348441   3.395959   1.874805   1.463043
    10  H    3.554827   4.241308   4.337651   2.450019   2.061912
    11  H    2.868740   3.015658   2.860688   2.319001   2.043929
    12  C    2.510837   3.920960   4.628330   1.504433   3.181504
    13  H    3.404074   4.686603   5.302040   2.150799   3.356431
    14  H    2.846307   4.257858   5.161632   2.130293   4.229607
    15  H    2.786178   4.237824   4.793807   2.142192   2.888290
    16  Cl   2.663577   3.117695   3.865958   1.813703   4.066407
    17  Cl   1.766978   2.710870   3.247470   2.721474   3.627290
    18  C    2.563286   1.501129   2.373116   3.506059   5.346317
    19  H    2.785184   2.134781   3.121901   3.359361   5.582952
    20  H    3.491872   2.151448   2.534290   4.404006   5.935297
    21  H    2.824272   2.114044   3.029539   3.942811   5.867378
                    6          7          8          9         10
     6  H    0.000000
     7  H    1.775425   0.000000
     8  H    1.773211   1.775141   0.000000
     9  N    2.094750   2.079537   2.120416   0.000000
    10  H    2.389048   2.938944   2.461101   1.015180   0.000000
    11  H    2.936903   2.404262   2.384528   1.014359   1.632226
    12  C    2.914526   3.441141   4.199782   2.598292   2.797390
    13  H    3.002241   3.917118   4.220557   2.637057   2.418870
    14  H    3.946222   4.363284   5.268954   3.605214   3.797703
    15  H    2.364189   3.047627   3.922820   2.845859   3.158355
    16  Cl   4.483603   4.309092   4.799499   2.695225   2.838316
    17  Cl   3.748563   2.887564   4.600949   3.781758   4.647047
    18  C    6.023427   4.814704   6.063985   4.610608   5.385499
    19  H    6.197291   5.240309   6.334382   4.606097   5.222052
    20  H    6.727447   5.374343   6.514013   5.232088   6.006960
    21  H    6.424399   5.230294   6.672575   5.275126   6.084610
                   11         12         13         14         15
    11  H    0.000000
    12  C    3.407489   0.000000
    13  H    3.498517   1.088247   0.000000
    14  H    4.314510   1.089607   1.769470   0.000000
    15  H    3.746546   1.088734   1.772259   1.765293   0.000000
    16  Cl   2.685266   2.748135   2.855441   3.036256   3.710291
    17  Cl   4.143130   3.119413   4.158331   3.329024   2.781022
    18  C    4.217927   4.812828   5.572028   4.864889   5.300844
    19  H    4.256535   4.589819   5.230370   4.532596   5.273276
    20  H    4.662726   5.790770   6.494893   5.914473   6.262622
    21  H    5.031138   5.045342   5.929060   4.924189   5.432190
                   16         17         18         19         20
    16  Cl   0.000000
    17  Cl   4.334027   0.000000
    18  C    3.511208   3.694498   0.000000
    19  H    2.887179   4.178957   1.090413   0.000000
    20  H    4.249776   4.560185   1.088515   1.792205   0.000000
    21  H    4.203954   3.491480   1.093435   1.752711   1.786159
                   21
    21  H    0.000000
 Stoichiometry    C6H11Cl2NO
 Framework group  C1[X(C6H11Cl2NO)]
 Deg. of freedom    57
 Full point group                 C1      NOp   1
 Largest Abelian subgroup         C1      NOp   1
 Largest concise Abelian subgroup C1      NOp   1
                         Standard orientation:                         
 ---------------------------------------------------------------------
 Center     Atomic      Atomic             Coordinates (Angstroms)
 Number     Number       Type             X           Y           Z
 ---------------------------------------------------------------------
      1          6           0        0.541109   -0.263121   -0.402430
      2          6           0        1.615470    0.200245    0.538960
      3          8           0        1.657829   -0.190765    1.687700
      4          6           0       -0.710440    0.290223   -0.468760
      5          6           0       -1.840765   -1.318493    1.511850
      6          1           0       -2.530406   -1.808831    0.828230
      7          1           0       -0.868316   -1.803557    1.452380
      8          1           0       -2.223905   -1.408712    2.528300
      9          7           0       -1.679610    0.082586    1.122620
     10          1           0       -2.572859    0.564409    1.099300
     11          1           0       -1.099149    0.564074    1.800970
     12          6           0       -1.734591   -0.189704   -1.460780
     13          1           0       -2.693210    0.300349   -1.302100
     14          1           0       -1.391710    0.033135   -2.470740
     15          1           0       -1.868855   -1.266783   -1.375840
     16         17           0       -0.685974    2.100623   -0.362120
     17         17           0        0.789173   -1.937872   -0.908280
     18          6           0        2.666743    1.116482   -0.016670
     19          1           0        2.195436    1.975604   -0.494980
     20          1           0        3.360094    1.440100    0.757540
     21          1           0        3.207971    0.577670   -0.799200
 ---------------------------------------------------------------------
 Rotational constants (GHZ):           0.9813340           0.8773331           0.6956422
 Standard basis: def2TZVP (5D, 7F)
 There are   438 symmetry adapted cartesian basis functions of A   symmetry.
 There are   388 symmetry adapted basis functions of A   symmetry.
   388 basis functions,   634 primitive gaussians,   438 cartesian basis functions
    48 alpha electrons       48 beta electrons
       nuclear repulsion energy       765.8766977196 Hartrees.
 NAtoms=   21 NActive=   21 NUniq=   21 SFac= 1.00D+00 NAtFMM=   60 NAOKFM=F Big=F
 Integral buffers will be    131072 words long.
 Raffenetti 2 integral format.
 Two-electron integral symmetry is turned on.
 Nuclear repulsion after empirical dispersion term =      765.8614536909 Hartrees.
 Force inversion solution in PCM.
 ------------------------------------------------------------------------------
 Polarizable Continuum Model (PCM)
 =================================
 Model                : PCM.
 Atomic radii         : UFF (Universal Force Field).
 Polarization charges : Total charges.
 Charge compensation  : None.
 Solution method      : Matrix inversion.
 Cavity type          : Scaled VdW (van der Waals Surface) (Alpha=1.100).
 Cavity algorithm     : GePol (No added spheres)
                        Default sphere list used, NSphG=   21.
                        Lebedev-Laikov grids with approx.  5.0 points / Ang**2.
                        Smoothing algorithm: York/Karplus (Gamma=1.0000).
                        Polarization charges: spherical gaussians, with
                                              point-specific exponents (IZeta= 3).
                        Self-potential: point-specific (ISelfS= 7).
                        Self-field    : sphere-specific E.n sum rule (ISelfD= 2).
 1st derivatives      : Analytical E(r).r(x)/FMM algorithm (CHGder, D1EAlg=3).
                        Cavity 1st derivative terms included.
 2nd derivatives      : Analytical E(r).r(xy)/FMM algorithm (CHGder, D2EAlg=3).
                        Cavity 2nd derivative terms included.
 Solvent              : Water, Eps=  78.355300 Eps(inf)=   1.777849
 ------------------------------------------------------------------------------
 One-electron integrals computed using PRISM.
   1 Symmetry operations used in ECPInt.
 ECPInt:  NShTT=   12561 NPrTT=   39621 LenC2=   12087 LenP2D=   28861.
 LDataN:  DoStor=T MaxTD1= 6 Len=  172
 NBasis=   388 RedAO= T EigKep=  8.54D-05  NBF=   388
 NBsUse=   388 1.00D-06 EigRej= -1.00D+00 NBFU=   388
 ExpMin= 9.52D-02 ExpMax= 6.95D+04 ExpMxC= 2.37D+03 IAcc=3 IRadAn=         5 AccDes= 0.00D+00
 Harris functional with IExCor= 4639 and IRadAn=       5 diagonalized for initial guess.
 HarFok:  IExCor= 4639 AccDes= 0.00D+00 IRadAn=         5 IDoV= 1 UseB2=F ITyADJ=14
 ICtDFT=  3500011 ScaDFX=  1.000000  1.000000  1.000000  1.000000
 FoFCou: FMM=F IPFlag=           0 FMFlag=      100000 FMFlg1=           0
         NFxFlg=           0 DoJE=T BraDBF=F KetDBF=T FulRan=T
         wScrn=  0.000000 ICntrl=       500 IOpCl=  0 I1Cent=   200000004 NGrid=           0
         NMat0=    1 NMatS0=      1 NMatT0=    0 NMatD0=    1 NMtDS0=    0 NMtDT0=    0
 Petite list used in FoFCou.
 Requested convergence on RMS density matrix=1.00D-08 within 128 cycles.
 Requested convergence on MAX density matrix=1.00D-06.
 Requested convergence on             energy=1.00D-06.
 No special actions if energy rises.
 Inv3:  Mode=1 IEnd=     7795632.
 Iteration    1 A*A^-1 deviation from unit magnitude is 4.22D-15 for   1266.
 Iteration    1 A*A^-1 deviation from orthogonality  is 1.81D-15 for   1152    457.
 Iteration    1 A^-1*A deviation from unit magnitude is 4.44D-15 for   1266.
 Iteration    1 A^-1*A deviation from orthogonality  is 2.53D-15 for   1093    419.
 Error on total polarization charges =  0.01288
 SCF Done:  E(RwB97XD) =  -1285.61963158     A.U. after   15 cycles
            NFock= 15  Conv=0.90D-08     -V/T= 2.0023
 DoSCS=F DFT=T ScalE2(SS,OS)=  1.000000  1.000000
 Range of M.O.s used for correlation:     1   388
 NBasis=   388 NAE=    48 NBE=    48 NFC=     0 NFV=     0
 NROrb=    388 NOA=    48 NOB=    48 NVA=   340 NVB=   340

 **** Warning!!: The largest alpha MO coefficient is  0.22343682D+02

   1 Symmetry operations used in ECPInt.
 ECPInt:  NShTT=   12561 NPrTT=   39621 LenC2=   12087 LenP2D=   28861.
 LDataN:  DoStor=T MaxTD1= 7 Len=  274
 Symmetrizing basis deriv contribution to polar:
 IMax=3 JMax=2 DiffMx= 0.00D+00
 G2DrvN: will do    22 centers at a time, making    1 passes.
 Calling FoFCou, ICntrl=  3107 FMM=F I1Cent=   0 AccDes= 0.00D+00.
 NEqPCM:  Using equilibrium solvation (IEInf=0, Eps=  78.3553, EpsInf=   1.7778)
 G2PCM: DoFxE=T DoFxN=T DoGrad=T DoDP/DQ/DG/TGxP=FFFF NFrqRd=   0 IEInf=0 SqF1=F DoCFld=F IF1Alg=4.
 End of G2Drv F.D. properties file   721 does not exist.
 End of G2Drv F.D. properties file   722 does not exist.
 End of G2Drv F.D. properties file   788 does not exist.
          IDoAtm=111111111111111111111
 NEqPCM:  Using equilibrium solvation (IEInf=0, Eps=  78.3553, EpsInf=   1.7778)
          Differentiating once with respect to nuclear coordinates.
 Keep R1 ints in memory in canonical form, NReq=5737506064.
          There are    66 degrees of freedom in the 1st order CPHF.  IDoFFX=6 NUNeed=     0.
     60 vectors produced by pass  0 Test12= 2.47D-14 1.52D-09 XBig12= 1.06D-01 8.91D-02.
 AX will form    60 AO Fock derivatives at one time.
     60 vectors produced by pass  1 Test12= 2.47D-14 1.52D-09 XBig12= 1.02D-02 3.00D-02.
     60 vectors produced by pass  2 Test12= 2.47D-14 1.52D-09 XBig12= 3.64D-04 4.09D-03.
     60 vectors produced by pass  3 Test12= 2.47D-14 1.52D-09 XBig12= 8.77D-06 4.31D-04.
     60 vectors produced by pass  4 Test12= 2.47D-14 1.52D-09 XBig12= 1.02D-07 3.87D-05.
     60 vectors produced by pass  5 Test12= 2.47D-14 1.52D-09 XBig12= 9.05D-10 3.74D-06.
     60 vectors produced by pass  6 Test12= 2.47D-14 1.52D-09 XBig12= 6.46D-12 2.96D-07.
     24 vectors produced by pass  7 Test12= 2.47D-14 1.52D-09 XBig12= 4.27D-14 2.83D-08.
      1 vectors produced by pass  8 Test12= 2.47D-14 1.52D-09 XBig12= 2.97D-16 2.89D-09.
 InvSVY:  IOpt=1 It=  1 EMax= 2.78D-16
 Solved reduced A of dimension   445 with    66 vectors.
 End of Minotr F.D. properties file   721 does not exist.
 End of Minotr F.D. properties file   722 does not exist.
 End of Minotr F.D. properties file   788 does not exist.

 **********************************************************************

            Population analysis using the SCF density.

 **********************************************************************

 Orbital symmetries:
       Occupied  (A) (A) (A) (A) (A) (A) (A) (A) (A) (A) (A) (A)
                 (A) (A) (A) (A) (A) (A) (A) (A) (A) (A) (A) (A)
                 (A) (A) (A) (A) (A) (A) (A) (A) (A) (A) (A) (A)
                 (A) (A) (A) (A) (A) (A) (A) (A) (A) (A) (A) (A)
       Virtual   (A) (A) (A) (A) (A) (A) (A) (A) (A) (A) (A) (A)
                 (A) (A) (A) (A) (A) (A) (A) (A) (A) (A) (A) (A)
                 (A) (A) (A) (A) (A) (A) (A) (A) (A) (A) (A) (A)
                 (A) (A) (A) (A) (A) (A) (A) (A) (A) (A) (A) (A)
                 (A) (A) (A) (A) (A) (A) (A) (A) (A) (A) (A) (A)
                 (A) (A) (A) (A) (A) (A) (A) (A) (A) (A) (A) (A)
                 (A) (A) (A) (A) (A) (A) (A) (A) (A) (A) (A) (A)
                 (A) (A) (A) (A) (A) (A) (A) (A) (A) (A) (A) (A)
                 (A) (A) (A) (A) (A) (A) (A) (A) (A) (A) (A) (A)
                 (A) (A) (A) (A) (A) (A) (A) (A) (A) (A) (A) (A)
                 (A) (A) (A) (A) (A) (A) (A) (A) (A) (A) (A) (A)
                 (A) (A) (A) (A) (A) (A) (A) (A) (A) (A) (A) (A)
                 (A) (A) (A) (A) (A) (A) (A) (A) (A) (A) (A) (A)
                 (A) (A) (A) (A) (A) (A) (A) (A) (A) (A) (A) (A)
                 (A) (A) (A) (A) (A) (A) (A) (A) (A) (A) (A) (A)
                 (A) (A) (A) (A) (A) (A) (A) (A) (A) (A) (A) (A)
                 (A) (A) (A) (A) (A) (A) (A) (A) (A) (A) (A) (A)
                 (A) (A) (A) (A) (A) (A) (A) (A) (A) (A) (A) (A)
                 (A) (A) (A) (A) (A) (A) (A) (A) (A) (A) (A) (A)
                 (A) (A) (A) (A) (A) (A) (A) (A) (A) (A) (A) (A)
                 (A) (A) (A) (A) (A) (A) (A) (A) (A) (A) (A) (A)
                 (A) (A) (A) (A) (A) (A) (A) (A) (A) (A) (A) (A)
                 (A) (A) (A) (A) (A) (A) (A) (A) (A) (A) (A) (A)
                 (A) (A) (A) (A) (A) (A) (A) (A) (A) (A) (A) (A)
                 (A) (A) (A) (A) (A) (A) (A) (A) (A) (A) (A) (A)
                 (A) (A) (A) (A) (A) (A) (A) (A) (A) (A) (A) (A)
                 (A) (A) (A) (A) (A) (A) (A) (A) (A) (A) (A) (A)
                 (A) (A) (A) (A) (A) (A) (A) (A) (A) (A) (A) (A)
                 (A) (A) (A) (A)
 The electronic state is 1-A.
 Alpha  occ. eigenvalues -- -101.69550-101.68980 -19.24713 -14.48033 -10.39506
 Alpha  occ. eigenvalues --  -10.38597 -10.31510 -10.29842 -10.28902 -10.28031
 Alpha  occ. eigenvalues --   -9.58150  -9.57468  -7.32762  -7.32100  -7.31937
 Alpha  occ. eigenvalues --   -7.31922  -7.31278  -7.31231  -1.15476  -1.04555
 Alpha  occ. eigenvalues --   -0.97876  -0.94228  -0.85342  -0.85092  -0.79060
 Alpha  occ. eigenvalues --   -0.78685  -0.68578  -0.63013  -0.60582  -0.58279
 Alpha  occ. eigenvalues --   -0.57373  -0.55495  -0.54973  -0.53182  -0.51125
 Alpha  occ. eigenvalues --   -0.50615  -0.49725  -0.48165  -0.47158  -0.46101
 Alpha  occ. eigenvalues --   -0.44915  -0.44531  -0.42172  -0.40540  -0.39340
 Alpha  occ. eigenvalues --   -0.38741  -0.34388  -0.26117
 Alpha virt. eigenvalues --    0.03372   0.06940   0.09977   0.10790   0.13827
 Alpha virt. eigenvalues --    0.14043   0.15110   0.15970   0.16983   0.18531
 Alpha virt. eigenvalues --    0.19451   0.19577   0.19969   0.20620   0.21134
 Alpha virt. eigenvalues --    0.22631   0.23606   0.24394   0.25143   0.26377
 Alpha virt. eigenvalues --    0.28596   0.29087   0.29464   0.30831   0.31929
 Alpha virt. eigenvalues --    0.33098   0.33858   0.35207   0.35606   0.36596
 Alpha virt. eigenvalues --    0.37031   0.37673   0.39303   0.40201   0.40949
 Alpha virt. eigenvalues --    0.42263   0.43870   0.44170   0.44652   0.45827
 Alpha virt. eigenvalues --    0.46555   0.47884   0.48729   0.49376   0.50129
 Alpha virt. eigenvalues --    0.50245   0.50885   0.51608   0.52439   0.52975
 Alpha virt. eigenvalues --    0.53166   0.53641   0.54345   0.55142   0.56644
 Alpha virt. eigenvalues --    0.57153   0.58045   0.58362   0.58940   0.60016
 Alpha virt. eigenvalues --    0.60528   0.61220   0.62190   0.64217   0.65794
 Alpha virt. eigenvalues --    0.66723   0.67951   0.69214   0.70839   0.71333
 Alpha virt. eigenvalues --    0.73771   0.74947   0.75588   0.77460   0.77774
 Alpha virt. eigenvalues --    0.81611   0.82198   0.84949   0.87275   0.89593
 Alpha virt. eigenvalues --    0.90592   0.92246   0.93496   0.95082   0.95931
 Alpha virt. eigenvalues --    0.97021   1.00268   1.01218   1.01504   1.03124
 Alpha virt. eigenvalues --    1.05945   1.08177   1.09700   1.10200   1.13005
 Alpha virt. eigenvalues --    1.13897   1.15974   1.16965   1.19294   1.20869
 Alpha virt. eigenvalues --    1.21182   1.22745   1.24291   1.25195   1.28620
 Alpha virt. eigenvalues --    1.30154   1.31654   1.35878   1.38998   1.41319
 Alpha virt. eigenvalues --    1.41472   1.43896   1.46464   1.49083   1.51154
 Alpha virt. eigenvalues --    1.54564   1.57874   1.58112   1.59523   1.59821
 Alpha virt. eigenvalues --    1.60980   1.61440   1.62591   1.63695   1.65500
 Alpha virt. eigenvalues --    1.65900   1.67767   1.68929   1.70013   1.70888
 Alpha virt. eigenvalues --    1.71481   1.73332   1.73682   1.74621   1.81633
 Alpha virt. eigenvalues --    1.83398   1.83936   1.86041   1.86448   1.88292
 Alpha virt. eigenvalues --    1.90295   1.90985   1.91858   1.93064   1.93685
 Alpha virt. eigenvalues --    1.94513   1.95867   1.97457   1.97675   1.98605
 Alpha virt. eigenvalues --    2.01279   2.02049   2.02810   2.03661   2.04782
 Alpha virt. eigenvalues --    2.05995   2.07410   2.08955   2.09530   2.13252
 Alpha virt. eigenvalues --    2.13703   2.15162   2.15410   2.16921   2.17330
 Alpha virt. eigenvalues --    2.19102   2.19600   2.20296   2.22410   2.22773
 Alpha virt. eigenvalues --    2.24165   2.25165   2.27362   2.28178   2.28604
 Alpha virt. eigenvalues --    2.30777   2.31199   2.33603   2.34986   2.35677
 Alpha virt. eigenvalues --    2.36589   2.37801   2.38626   2.38830   2.40394
 Alpha virt. eigenvalues --    2.41894   2.42203   2.44647   2.46573   2.47230
 Alpha virt. eigenvalues --    2.48295   2.49087   2.50020   2.50272   2.54215
 Alpha virt. eigenvalues --    2.56763   2.57629   2.59290   2.62149   2.63026
 Alpha virt. eigenvalues --    2.63803   2.65074   2.66832   2.68027   2.68823
 Alpha virt. eigenvalues --    2.71051   2.73684   2.75332   2.76689   2.78855
 Alpha virt. eigenvalues --    2.80889   2.81224   2.83611   2.84235   2.86418
 Alpha virt. eigenvalues --    2.89698   2.90802   2.91288   2.94858   2.96585
 Alpha virt. eigenvalues --    2.99031   3.02424   3.04410   3.07373   3.10618
 Alpha virt. eigenvalues --    3.11169   3.13666   3.13922   3.15677   3.17929
 Alpha virt. eigenvalues --    3.19732   3.20071   3.21184   3.23898   3.25720
 Alpha virt. eigenvalues --    3.26490   3.28827   3.29460   3.31646   3.32472
 Alpha virt. eigenvalues --    3.33388   3.34456   3.35526   3.38108   3.38548
 Alpha virt. eigenvalues --    3.39867   3.43669   3.45749   3.47982   3.48446
 Alpha virt. eigenvalues --    3.51220   3.51539   3.52879   3.56296   3.58550
 Alpha virt. eigenvalues --    3.60292   3.62085   3.63324   3.66430   3.68236
 Alpha virt. eigenvalues --    3.69650   3.72171   3.73874   3.74839   3.80494
 Alpha virt. eigenvalues --    3.81565   3.84038   3.86457   3.89230   3.91692
 Alpha virt. eigenvalues --    3.94926   3.96310   4.01006   4.03530   4.06128
 Alpha virt. eigenvalues --    4.08378   4.09212   4.15074   4.17504   4.19586
 Alpha virt. eigenvalues --    4.23893   4.25005   4.27573   4.31464   4.33280
 Alpha virt. eigenvalues --    4.42739   4.43421   4.46178   4.48224   4.49014
 Alpha virt. eigenvalues --    4.51676   4.54554   4.61364   4.61770   4.68818
 Alpha virt. eigenvalues --    4.73479   4.76915   4.86761   4.94027   4.94799
 Alpha virt. eigenvalues --    4.97250   4.99748   5.04906   5.09535   5.12564
 Alpha virt. eigenvalues --    5.14732   5.18285   5.22520   5.27968   5.29850
 Alpha virt. eigenvalues --    5.39931   5.52444   5.59957   5.68790   5.76786
 Alpha virt. eigenvalues --    5.86760   6.21963   6.40461   6.48954   6.59699
 Alpha virt. eigenvalues --    6.63854   6.90423   7.10378   7.15768  10.87611
 Alpha virt. eigenvalues --   10.89371  10.93072  10.94412  11.43223  11.44381
 Alpha virt. eigenvalues --   22.41783  22.46985  22.47542  22.55745  22.85035
 Alpha virt. eigenvalues --   23.16353  25.64707  25.71302  32.20667  44.02386
          Condensed to atoms (all electrons):
               1          2          3          4          5          6
     1  C    5.953414   0.129956  -0.139699   0.414503   0.020505  -0.004575
     2  C    0.129956   4.727236   0.657884  -0.002904  -0.006675   0.000493
     3  O   -0.139699   0.657884   7.953493  -0.014884  -0.004031   0.000271
     4  C    0.414503  -0.002904  -0.014884   5.157382  -0.005077   0.000108
     5  C    0.020505  -0.006675  -0.004031  -0.005077   4.886593   0.418954
     6  H   -0.004575   0.000493   0.000271   0.000108   0.418954   0.508001
     7  H    0.010991  -0.000372   0.009306  -0.019081   0.410071  -0.023178
     8  H   -0.002849   0.000290  -0.000016   0.001276   0.405612  -0.018426
     9  N   -0.083842   0.006482   0.008435  -0.054217   0.219291  -0.039133
    10  H    0.011087  -0.000557  -0.000050   0.000155  -0.019492  -0.005354
    11  H   -0.016314   0.002627   0.003007   0.006479  -0.017408   0.005424
    12  C   -0.087249   0.004436  -0.000486   0.282935   0.006040   0.002906
    13  H    0.019411  -0.000177   0.000031  -0.050847  -0.003106  -0.000206
    14  H   -0.001539   0.000126   0.000006  -0.046531  -0.000266  -0.000035
    15  H   -0.021563  -0.000562  -0.000008  -0.023425   0.000734  -0.002584
    16  Cl  -0.115622   0.025532  -0.001709   0.330549   0.004044   0.000198
    17  Cl   0.172681  -0.005147   0.000053  -0.049755  -0.009111  -0.000366
    18  C   -0.167129   0.357629  -0.097276  -0.005062  -0.000449   0.000041
    19  H    0.009154  -0.021576   0.003004  -0.009397   0.000014  -0.000002
    20  H    0.017941  -0.050360   0.007171  -0.000234   0.000006  -0.000001
    21  H    0.002493  -0.024011   0.001518   0.005016   0.000021  -0.000001
               7          8          9         10         11         12
     1  C    0.010991  -0.002849  -0.083842   0.011087  -0.016314  -0.087249
     2  C   -0.000372   0.000290   0.006482  -0.000557   0.002627   0.004436
     3  O    0.009306  -0.000016   0.008435  -0.000050   0.003007  -0.000486
     4  C   -0.019081   0.001276  -0.054217   0.000155   0.006479   0.282935
     5  C    0.410071   0.405612   0.219291  -0.019492  -0.017408   0.006040
     6  H   -0.023178  -0.018426  -0.039133  -0.005354   0.005424   0.002906
     7  H    0.509730  -0.019162  -0.034592   0.005663  -0.003569  -0.003068
     8  H   -0.019162   0.507362  -0.019631  -0.004926  -0.006224   0.000051
     9  N   -0.034592  -0.019631   6.712540   0.343334   0.346402  -0.028368
    10  H    0.005663  -0.004926   0.343334   0.412643  -0.019956  -0.008919
    11  H   -0.003569  -0.006224   0.346402  -0.019956   0.412618   0.005893
    12  C   -0.003068   0.000051  -0.028368  -0.008919   0.005893   5.014965
    13  H    0.000172   0.000064   0.003745   0.000168   0.000154   0.408339
    14  H   -0.000119   0.000017   0.006140  -0.000031  -0.000236   0.420070
    15  H   -0.000092   0.000329  -0.002430  -0.000227  -0.000313   0.413963
    16  Cl   0.000540  -0.000262  -0.081620   0.003787   0.003443  -0.042664
    17  Cl   0.005533   0.000805   0.008489  -0.000389   0.000028  -0.007756
    18  C    0.000429  -0.000005   0.000687  -0.000036   0.000490  -0.000755
    19  H   -0.000035   0.000001   0.000017  -0.000005  -0.000093   0.000384
    20  H   -0.000018   0.000001   0.000077  -0.000003  -0.000032   0.000031
    21  H   -0.000023  -0.000001  -0.000098   0.000003   0.000007   0.000027
              13         14         15         16         17         18
     1  C    0.019411  -0.001539  -0.021563  -0.115622   0.172681  -0.167129
     2  C   -0.000177   0.000126  -0.000562   0.025532  -0.005147   0.357629
     3  O    0.000031   0.000006  -0.000008  -0.001709   0.000053  -0.097276
     4  C   -0.050847  -0.046531  -0.023425   0.330549  -0.049755  -0.005062
     5  C   -0.003106  -0.000266   0.000734   0.004044  -0.009111  -0.000449
     6  H   -0.000206  -0.000035  -0.002584   0.000198  -0.000366   0.000041
     7  H    0.000172  -0.000119  -0.000092   0.000540   0.005533   0.000429
     8  H    0.000064   0.000017   0.000329  -0.000262   0.000805  -0.000005
     9  N    0.003745   0.006140  -0.002430  -0.081620   0.008489   0.000687
    10  H    0.000168  -0.000031  -0.000227   0.003787  -0.000389  -0.000036
    11  H    0.000154  -0.000236  -0.000313   0.003443   0.000028   0.000490
    12  C    0.408339   0.420070   0.413963  -0.042664  -0.007756  -0.000755
    13  H    0.511002  -0.016530  -0.020141  -0.001891   0.001342  -0.000027
    14  H   -0.016530   0.500252  -0.018424   0.001536   0.001271   0.000120
    15  H   -0.020141  -0.018424   0.513519   0.005043   0.006409  -0.000003
    16  Cl  -0.001891   0.001536   0.005043  17.015835   0.005136  -0.009589
    17  Cl   0.001342   0.001271   0.006409   0.005136  17.043389   0.006238
    18  C   -0.000027   0.000120  -0.000003  -0.009589   0.006238   5.093296
    19  H   -0.000013   0.000034  -0.000005   0.009096   0.000160   0.382282
    20  H    0.000000  -0.000000   0.000001   0.000111  -0.000555   0.403611
    21  H   -0.000002  -0.000003  -0.000011   0.000547   0.003264   0.376924
              19         20         21
     1  C    0.009154   0.017941   0.002493
     2  C   -0.021576  -0.050360  -0.024011
     3  O    0.003004   0.007171   0.001518
     4  C   -0.009397  -0.000234   0.005016
     5  C    0.000014   0.000006   0.000021
     6  H   -0.000002  -0.000001  -0.000001
     7  H   -0.000035  -0.000018  -0.000023
     8  H    0.000001   0.000001  -0.000001
     9  N    0.000017   0.000077  -0.000098
    10  H   -0.000005  -0.000003   0.000003
    11  H   -0.000093  -0.000032   0.000007
    12  C    0.000384   0.000031   0.000027
    13  H   -0.000013   0.000000  -0.000002
    14  H    0.000034  -0.000000  -0.000003
    15  H   -0.000005   0.000001  -0.000011
    16  Cl   0.009096   0.000111   0.000547
    17  Cl   0.000160  -0.000555   0.003264
    18  C    0.382282   0.403611   0.376924
    19  H    0.516496  -0.015412  -0.016023
    20  H   -0.015412   0.523871  -0.016880
    21  H   -0.016023  -0.016880   0.517937
 Mulliken charges:
               1
     1  C   -0.121757
     2  C    0.199653
     3  O   -0.386019
     4  C    0.083011
     5  C   -0.306272
     6  H    0.157464
     7  H    0.150875
     8  H    0.155695
     9  N   -0.311709
    10  H    0.283103
    11  H    0.277572
    12  C   -0.380773
    13  H    0.148511
    14  H    0.154142
    15  H    0.149790
    16  Cl  -0.152041
    17  Cl  -0.181719
    18  C   -0.341417
    19  H    0.141919
    20  H    0.130673
    21  H    0.149298
 Sum of Mulliken charges =  -0.00000
 Mulliken charges with hydrogens summed into heavy atoms:
               1
     1  C   -0.121757
     2  C    0.199653
     3  O   -0.386019
     4  C    0.083011
     5  C    0.157762
     9  N    0.248966
    12  C    0.071671
    16  Cl  -0.152041
    17  Cl  -0.181719
    18  C    0.080473
 APT charges:
               1
     1  C   -0.215943
     2  C   -0.187361
     3  O   -0.097101
     4  C   -0.070516
     5  C   -1.102002
     6  H    0.430416
     7  H    0.122811
     8  H    0.643690
     9  N   -0.776621
    10  H    0.717423
    11  H    0.413373
    12  C   -1.287679
    13  H    0.493641
    14  H    0.414722
    15  H    0.348180
    16  Cl   0.061167
    17  Cl  -0.031038
    18  C   -1.138217
    19  H    0.250571
    20  H    0.591252
    21  H    0.419233
 Sum of APT charges =  -0.00000
 APT charges with hydrogens summed into heavy atoms:
               1
     1  C   -0.215943
     2  C   -0.187361
     3  O   -0.097101
     4  C   -0.070516
     5  C    0.094915
     9  N    0.354175
    12  C   -0.031136
    16  Cl   0.061167
    17  Cl  -0.031038
    18  C    0.122839
 Electronic spatial extent (au):  <R**2>=           1946.4264
 Charge=             -0.0000 electrons
 Dipole moment (field-independent basis, Debye):
    X=             -5.8916    Y=              1.1688    Z=              0.9477  Tot=              6.0807
 Quadrupole moment (field-independent basis, Debye-Ang):
   XX=            -63.6428   YY=            -78.2724   ZZ=            -76.0741
   XY=              5.5171   XZ=             -8.2471   YZ=              0.4877
 Traceless Quadrupole moment (field-independent basis, Debye-Ang):
   XX=              9.0203   YY=             -5.6093   ZZ=             -3.4110
   XY=              5.5171   XZ=             -8.2471   YZ=              0.4877
 Octapole moment (field-independent basis, Debye-Ang**2):
  XXX=            -25.0515  YYY=              0.7373  ZZZ=              4.6424  XYY=             -3.8184
  XXY=              5.2529  XXZ=              2.5927  XZZ=            -24.5786  YZZ=              2.5917
  YYZ=              7.9764  XYZ=              0.4753
 Hexadecapole moment (field-independent basis, Debye-Ang**3):
 XXXX=          -1007.4707 YYYY=           -867.0555 ZZZZ=           -541.2534 XXXY=              3.0040
 XXXZ=            -39.5960 YYYX=              4.1631 YYYZ=              2.8354 ZZZX=            -35.6534
 ZZZY=              1.4349 XXYY=           -321.3074 XXZZ=           -273.1164 YYZZ=           -237.0661
 XXYZ=              5.0311 YYXZ=             -5.0118 ZZXY=              4.3573
 N-N= 7.658614536909D+02 E-N=-4.572631735680D+03  KE= 1.282616281758D+03
  Exact polarizability:   0.000   0.000   0.000   0.000   0.000   0.000
 Approx polarizability: 126.782  -4.750 132.059  -6.904   1.051 120.775
   1 Symmetry operations used in ECPInt.
 ECPInt:  NShTT=   12561 NPrTT=   39621 LenC2=   12087 LenP2D=   28861.
 LDataN:  DoStor=T MaxTD1= 8 Len=  415
 D2PCM: PCM CHGder 2nd derivatives, FixD1E=F FixD2E=F DoIter=F DoCFld=F I1PDM=0
 Calling FoFJK, ICntrl=    100147 FMM=F ISym2X=0 I1Cent= 0 IOpClX= 0 NMat=1 NMatS=1 NMatT=0.
 ***** Axes restored to original set *****
 -------------------------------------------------------------------
 Center     Atomic                   Forces (Hartrees/Bohr)
 Number     Number              X              Y              Z
 -------------------------------------------------------------------
      1        6           0.000012720   -0.000004341    0.000005628
      2        6           0.000009544   -0.000002027    0.000009396
      3        8          -0.000006263   -0.000002260   -0.000011032
      4        6           0.010426589    0.002252725   -0.017137809
      5        6          -0.000005843   -0.000004360    0.000004914
      6        1          -0.000001786    0.000004619   -0.000002002
      7        1          -0.000002110    0.000000061    0.000000732
      8        1          -0.000004458    0.000002456   -0.000003081
      9        7          -0.010441449   -0.002239513    0.017142613
     10        1           0.000000120    0.000009196   -0.000000791
     11        1           0.000000613   -0.000002167   -0.000001511
     12        6           0.000008334   -0.000002505   -0.000006533
     13        1           0.000001311    0.000002931   -0.000002049
     14        1           0.000002486    0.000001767   -0.000001134
     15        1           0.000002112    0.000004593   -0.000004377
     16       17          -0.000000861    0.000001071   -0.000003138
     17       17          -0.000005441   -0.000004753   -0.000000674
     18        6          -0.000000203   -0.000004644    0.000004063
     19        1           0.000003453   -0.000003031   -0.000000270
     20        1           0.000001366   -0.000004523    0.000003327
     21        1          -0.000000233   -0.000005294    0.000003728
 -------------------------------------------------------------------
 Cartesian Forces:  Max     0.017142613 RMS     0.003597624
 FormGI is forming the generalized inverse of G from B-inverse, IUseBI=4.

 GradGradGradGradGradGradGradGradGradGradGradGradGradGradGradGradGradGrad
 Berny optimization.
 Internal  Forces:  Max     0.020203752 RMS     0.002030558
 Search for a saddle point.
 Step number   1 out of a maximum of   70
 All quantities printed in internal units (Hartrees-Bohrs-Radians)
 Swapping is turned off.
 Second derivative matrix not updated -- analytic derivatives used.
 ITU=  0
     Eigenvalues ---   -0.02356  -0.00817   0.00136   0.00154   0.00200
     Eigenvalues ---    0.00298   0.00954   0.01699   0.02334   0.03572
     Eigenvalues ---    0.03719   0.04427   0.04514   0.04665   0.04765
     Eigenvalues ---    0.05134   0.05178   0.05462   0.05553   0.07679
     Eigenvalues ---    0.08497   0.09514   0.12120   0.12399   0.12545
     Eigenvalues ---    0.12900   0.13219   0.13847   0.14549   0.14757
     Eigenvalues ---    0.15569   0.17242   0.17661   0.18158   0.18955
     Eigenvalues ---    0.19710   0.20464   0.21206   0.22973   0.26631
     Eigenvalues ---    0.31269   0.31771   0.32209   0.34036   0.34126
     Eigenvalues ---    0.34628   0.34641   0.34881   0.34996   0.35003
     Eigenvalues ---    0.35235   0.35346   0.36536   0.44802   0.45046
     Eigenvalues ---    0.52012   0.82728
 Eigenvectors required to have negative eigenvalues:
                          R6        D7        D5        D3        D4
   1                   -0.81140   0.25022   0.17500   0.15276   0.14334
                          R8        A10       D26       D9        D27
   1                    0.13861   0.12648   0.12522  -0.12345   0.12282
 RFO step:  Lambda0=8.402480933D-03 Lambda=-9.22921841D-03.
 Linear search not attempted -- option 19 set.
 Maximum step size (   0.030) exceeded in Quadratic search.
    -- Step size scaled by   0.091
 Iteration  1 RMS(Cart)=  0.01164458 RMS(Int)=  0.00005186
 Iteration  2 RMS(Cart)=  0.00007454 RMS(Int)=  0.00001141
 Iteration  3 RMS(Cart)=  0.00000000 RMS(Int)=  0.00001141
 Variable       Old X    -DE/DX   Delta X   Delta X   Delta X     New X
                                 (Linear)    (Quad)   (Total)
    R1        2.83785  -0.00000   0.00000  -0.00061  -0.00061   2.83724
    R2        2.58897   0.00001   0.00000   0.00465   0.00465   2.59362
    R3        3.33910   0.00000   0.00000   0.00258   0.00258   3.34169
    R4        2.29451  -0.00001   0.00000   0.00064   0.00064   2.29515
    R5        2.83672  -0.00000   0.00000   0.00041   0.00041   2.83713
    R6        3.54287   0.02020   0.00000  -0.02534  -0.02534   3.51753
    R7        2.84297   0.00000   0.00000   0.00102   0.00102   2.84399
    R8        3.42740   0.00000   0.00000   0.00608   0.00608   3.43348
    R9        2.05570  -0.00000   0.00000  -0.00026  -0.00026   2.05544
   R10        2.05666   0.00000   0.00000  -0.00033  -0.00033   2.05633
   R11        2.05981  -0.00000   0.00000  -0.00038  -0.00038   2.05943
   R12        2.76475   0.00001   0.00000   0.00109   0.00109   2.76585
   R13        1.91841   0.00000   0.00000   0.00019   0.00019   1.91860
   R14        1.91686  -0.00000   0.00000   0.00024   0.00024   1.91711
   R15        2.05649   0.00000   0.00000   0.00013   0.00013   2.05662
   R16        2.05906   0.00000   0.00000  -0.00029  -0.00029   2.05877
   R17        2.05741  -0.00000   0.00000  -0.00000  -0.00000   2.05741
   R18        2.06058   0.00000   0.00000  -0.00009  -0.00009   2.06049
   R19        2.05700   0.00000   0.00000   0.00007   0.00007   2.05707
   R20        2.06629  -0.00000   0.00000  -0.00003  -0.00003   2.06626
    A1        2.16431   0.00001   0.00000  -0.00260  -0.00265   2.16166
    A2        1.95139   0.00000   0.00000  -0.00087  -0.00093   1.95047
    A3        2.09117  -0.00001   0.00000  -0.00317  -0.00322   2.08794
    A4        2.11609  -0.00001   0.00000   0.00151   0.00151   2.11760
    A5        2.04578  -0.00000   0.00000   0.00019   0.00019   2.04597
    A6        2.12035   0.00001   0.00000  -0.00173  -0.00173   2.11862
    A7        1.96754  -0.00000   0.00000   0.00377   0.00378   1.97131
    A8        2.12347  -0.00001   0.00000  -0.00366  -0.00370   2.11977
    A9        1.96924   0.00001   0.00000  -0.00187  -0.00190   1.96734
   A10        1.74413   0.00001   0.00000   0.00618   0.00619   1.75032
   A11        1.63846  -0.00000   0.00000   0.00246   0.00247   1.64094
   A12        1.94591  -0.00000   0.00000  -0.00361  -0.00364   1.94227
   A13        1.90839   0.00000   0.00000   0.00132   0.00132   1.90972
   A14        1.90273   0.00000   0.00000   0.00076   0.00076   1.90349
   A15        1.91166  -0.00000   0.00000  -0.00011  -0.00011   1.91155
   A16        1.90513  -0.00000   0.00000   0.00107   0.00107   1.90620
   A17        1.89005   0.00000   0.00000  -0.00010  -0.00010   1.88995
   A18        1.94558  -0.00000   0.00000  -0.00287  -0.00287   1.94271
   A19        1.97015   0.00001   0.00000   0.00118   0.00117   1.97133
   A20        1.96361  -0.00001   0.00000  -0.00508  -0.00508   1.95854
   A21        1.79185  -0.00000   0.00000   0.00399   0.00399   1.79584
   A22        1.94304  -0.00000   0.00000   0.00027   0.00027   1.94331
   A23        1.91738  -0.00000   0.00000  -0.00011  -0.00011   1.91727
   A24        1.86877   0.00000   0.00000   0.00007   0.00007   1.86884
   A25        1.93892   0.00000   0.00000   0.00030   0.00030   1.93922
   A26        1.90894  -0.00000   0.00000  -0.00061  -0.00061   1.90833
   A27        1.92634   0.00000   0.00000   0.00027   0.00027   1.92662
   A28        1.89680  -0.00000   0.00000  -0.00010  -0.00010   1.89670
   A29        1.90232   0.00000   0.00000   0.00015   0.00015   1.90248
   A30        1.88962  -0.00000   0.00000  -0.00003  -0.00003   1.88958
   A31        1.91831   0.00000   0.00000   0.00057   0.00057   1.91888
   A32        1.94366   0.00000   0.00000   0.00009   0.00009   1.94375
   A33        1.88680  -0.00000   0.00000  -0.00054  -0.00054   1.88626
   A34        1.93164   0.00000   0.00000  -0.00007  -0.00007   1.93157
   A35        1.86321  -0.00000   0.00000  -0.00021  -0.00021   1.86300
   A36        1.91796   0.00000   0.00000   0.00014   0.00014   1.91810
    D1        1.45436  -0.00000   0.00000   0.00221   0.00221   1.45657
    D2       -1.73368  -0.00000   0.00000   0.00135   0.00134  -1.73233
    D3       -1.27427   0.00000   0.00000   0.01998   0.01998  -1.25429
    D4        1.82088  -0.00000   0.00000   0.01911   0.01912   1.84000
    D5       -1.10382  -0.00000   0.00000   0.01776   0.01774  -1.08607
    D6        3.11007  -0.00001   0.00000   0.00840   0.00840   3.11847
    D7        0.72576  -0.00000   0.00000   0.02178   0.02178   0.74754
    D8        1.59389   0.00000   0.00000  -0.00083  -0.00082   1.59307
    D9       -0.47541  -0.00001   0.00000  -0.01018  -0.01017  -0.48558
   D10       -2.85971   0.00000   0.00000   0.00320   0.00321  -2.85651
   D11        0.93451  -0.00000   0.00000  -0.00083  -0.00084   0.93368
   D12        3.08159   0.00000   0.00000  -0.00047  -0.00047   3.08112
   D13       -1.09299   0.00000   0.00000  -0.00059  -0.00059  -1.09358
   D14       -2.25364  -0.00000   0.00000  -0.00161  -0.00161  -2.25525
   D15       -0.10657  -0.00000   0.00000  -0.00124  -0.00124  -0.10781
   D16        2.00204  -0.00000   0.00000  -0.00136  -0.00136   2.00068
   D17       -1.01369   0.00001   0.00000  -0.00434  -0.00435  -1.01804
   D18        3.05246   0.00000   0.00000  -0.00142  -0.00144   3.05102
   D19        1.04950   0.00000   0.00000  -0.00151  -0.00151   1.04799
   D20        1.26626  -0.00000   0.00000  -0.00230  -0.00229   1.26397
   D21       -0.95078  -0.00001   0.00000   0.00062   0.00062  -0.95015
   D22       -2.95373  -0.00000   0.00000   0.00053   0.00054  -2.95319
   D23       -3.05127  -0.00000   0.00000  -0.00456  -0.00456  -3.05584
   D24        1.01487  -0.00001   0.00000  -0.00165  -0.00165   1.01323
   D25       -0.98808  -0.00000   0.00000  -0.00173  -0.00173  -0.98981
   D26        3.04779   0.00000   0.00000   0.00751   0.00750   3.05530
   D27       -1.14158   0.00000   0.00000   0.00718   0.00718  -1.13441
   D28        0.93558  -0.00000   0.00000   0.00693   0.00692   0.94250
   D29        0.87182   0.00000   0.00000  -0.00057  -0.00057   0.87125
   D30        2.96563   0.00000   0.00000  -0.00090  -0.00090   2.96473
   D31       -1.24039  -0.00000   0.00000  -0.00115  -0.00115  -1.24154
   D32       -0.84218  -0.00000   0.00000  -0.00505  -0.00504  -0.84722
   D33        1.25163  -0.00000   0.00000  -0.00537  -0.00536   1.24626
   D34       -2.95440  -0.00000   0.00000  -0.00563  -0.00562  -2.96001
   D35       -1.23544   0.00000   0.00000   0.00337   0.00337  -1.23207
   D36        0.99245   0.00000   0.00000  -0.00235  -0.00235   0.99010
   D37        3.05947  -0.00000   0.00000  -0.00217  -0.00217   3.05730
   D38        0.84446   0.00000   0.00000   0.00484   0.00484   0.84930
   D39        3.07235   0.00000   0.00000  -0.00088  -0.00088   3.07147
   D40       -1.14381   0.00000   0.00000  -0.00070  -0.00070  -1.14451
   D41        2.94050   0.00000   0.00000   0.00434   0.00434   2.94484
   D42       -1.11480   0.00000   0.00000  -0.00137  -0.00137  -1.11617
   D43        0.95222   0.00000   0.00000  -0.00119  -0.00119   0.95103
         Item               Value     Threshold  Converged?
 Maximum Force            0.020204     0.000450     NO 
 RMS     Force            0.002031     0.000300     NO 
 Maximum Displacement     0.046894     0.001800     NO 
 RMS     Displacement     0.011641     0.001200     NO 
 Predicted change in Energy= 4.921245D-04
 GradGradGradGradGradGradGradGradGradGradGradGradGradGradGradGradGradGrad

                          Input orientation:                          
 ---------------------------------------------------------------------
 Center     Atomic      Atomic             Coordinates (Angstroms)
 Number     Number       Type             X           Y           Z
 ---------------------------------------------------------------------
      1          6           0        0.540814   -0.265849   -0.410890
      2          6           0        1.612600    0.190235    0.536461
      3          8           0        1.658939   -0.215575    1.680260
      4          6           0       -0.714367    0.286346   -0.468433
      5          6           0       -1.833044   -1.312865    1.512115
      6          1           0       -2.525736   -1.803298    0.831876
      7          1           0       -0.862081   -1.800612    1.453510
      8          1           0       -2.214980   -1.395148    2.529477
      9          7           0       -1.668390    0.086875    1.117392
     10          1           0       -2.560405    0.571093    1.092247
     11          1           0       -1.086442    0.569418    1.793909
     12          6           0       -1.738919   -0.194027   -1.460645
     13          1           0       -2.697512    0.296502   -1.302799
     14          1           0       -1.395358    0.028370   -2.470307
     15          1           0       -1.873523   -1.271046   -1.375492
     16         17           0       -0.687899    2.100606   -0.373769
     17         17           0        0.781650   -1.943866   -0.914175
     18          6           0        2.659541    1.119189   -0.006676
     19          1           0        2.184598    1.982071   -0.474394
     20          1           0        3.350951    1.436275    0.772014
     21          1           0        3.203612    0.592939   -0.795731
 ---------------------------------------------------------------------
                    Distance matrix (angstroms):
                    1          2          3          4          5
     1  C    0.000000
     2  C    1.501403   0.000000
     3  O    2.371843   1.214539   0.000000
     4  C    1.372483   2.536498   3.240584   0.000000
     5  C    3.229456   3.883770   3.664186   2.780554   0.000000
     6  H    3.648554   4.602963   4.555450   3.055891   1.087691
     7  H    2.792776   3.305828   2.986519   2.840964   1.088164
     8  H    4.185149   4.597381   4.137609   3.750563   1.089803
     9  N    2.709362   3.333626   3.388129   1.861394   1.463622
    10  H    3.546470   4.227046   4.332144   2.434062   2.062679
    11  H    2.864746   3.001630   2.857665   2.310143   2.044459
    12  C    2.510842   3.920302   4.627222   1.504975   3.177728
    13  H    3.405656   4.687348   5.304670   2.151542   3.355757
    14  H    2.841923   4.256132   5.159016   2.130211   4.224945
    15  H    2.787454   4.236031   4.788520   2.142864   2.888193
    16  Cl   2.666687   3.125752   3.884762   1.816921   4.064443
    17  Cl   1.768344   2.710943   3.238475   2.722242   3.622384
    18  C    2.563342   1.501346   2.372457   3.505724   5.329627
    19  H    2.785535   2.135342   3.122259   3.358499   5.562757
    20  H    3.491899   2.151735   2.533066   4.403164   5.914332
    21  H    2.824202   2.113818   3.028241   3.943563   5.858852
                    6          7          8          9         10
     6  H    0.000000
     7  H    1.776003   0.000000
     8  H    1.773416   1.775512   0.000000
     9  N    2.095070   2.079837   2.118759   0.000000
    10  H    2.388876   2.939354   2.459889   1.015278   0.000000
    11  H    2.937151   2.404839   2.382053   1.014489   1.632452
    12  C    2.909379   3.441258   4.194090   2.594254   2.788818
    13  H    2.999250   3.919685   4.216735   2.638249   2.414631
    14  H    3.941722   4.361869   5.262701   3.598548   3.787304
    15  H    2.362445   3.050690   3.921833   2.846137   3.155158
    16  Cl   4.480144   4.311472   4.793862   2.690731   2.827524
    17  Cl   3.742627   2.885881   4.597785   3.775430   4.638975
    18  C    6.010923   4.802000   6.042757   4.589138   5.362450
    19  H    6.182444   5.225682   6.307546   4.579418   5.192328
    20  H    6.710728   5.356446   6.487312   5.209026   5.982911
    21  H    6.420007   5.226666   6.661129   5.258569   6.065380
                   11         12         13         14         15
    11  H    0.000000
    12  C    3.405980   0.000000
    13  H    3.501376   1.088317   0.000000
    14  H    4.309490   1.089455   1.769343   0.000000
    15  H    3.748587   1.088732   1.772413   1.765147   0.000000
    16  Cl   2.683692   2.747960   2.855947   3.031523   3.711763
    17  Cl   4.140059   3.116703   4.156302   3.324248   2.777669
    18  C    4.192463   4.815082   5.572680   4.868425   5.304295
    19  H    4.223801   4.593700   5.230907   4.540561   5.278550
    20  H    4.635318   5.792187   6.495216   5.917963   6.263904
    21  H    5.011123   5.048766   5.930283   4.926811   5.439473
                   16         17         18         19         20
    16  Cl   0.000000
    17  Cl   4.336977   0.000000
    18  C    3.507604   3.705717   0.000000
    19  H    2.876702   4.192213   1.090365   0.000000
    20  H    4.250466   4.568358   1.088554   1.792151   0.000000
    21  H    4.194636   3.509318   1.093417   1.752523   1.786267
                   21
    21  H    0.000000
 Stoichiometry    C6H11Cl2NO
 Framework group  C1[X(C6H11Cl2NO)]
 Deg. of freedom    57
 Full point group                 C1      NOp   1
 Largest Abelian subgroup         C1      NOp   1
 Largest concise Abelian subgroup C1      NOp   1
                         Standard orientation:                         
 ---------------------------------------------------------------------
 Center     Atomic      Atomic             Coordinates (Angstroms)
 Number     Number       Type             X           Y           Z
 ---------------------------------------------------------------------
      1          6           0        0.542743   -0.255601   -0.410797
      2          6           0        1.614778    0.210631    0.531318
      3          8           0        1.672387   -0.197055    1.673937
      4          6           0       -0.718945    0.282403   -0.459848
      5          6           0       -1.807824   -1.333631    1.523647
      6          1           0       -2.498851   -1.830465    0.846365
      7          1           0       -0.831741   -1.810178    1.458343
      8          1           0       -2.182868   -1.422414    2.543025
      9          7           0       -1.661387    0.068727    1.131043
     10          1           0       -2.558976    0.542820    1.112134
     11          1           0       -1.081027    0.556418    1.805229
     12          6           0       -1.743736   -0.207482   -1.447150
     13          1           0       -2.706903    0.271776   -1.282673
     14          1           0       -1.408610    0.020953   -2.458299
     15          1           0       -1.865596   -1.286141   -1.363578
     16         17           0       -0.712539    2.096642   -0.361366
     17         17           0        0.799692   -1.929697   -0.919145
     18          6           0        2.647916    1.152584   -0.015847
     19          1           0        2.160484    2.011000   -0.478911
     20          1           0        3.340203    1.475859    0.759512
     21          1           0        3.193325    0.634234   -0.809195
 ---------------------------------------------------------------------
 Rotational constants (GHZ):           0.9817414           0.8780824           0.6964249
 Standard basis: def2TZVP (5D, 7F)
 There are   438 symmetry adapted cartesian basis functions of A   symmetry.
 There are   388 symmetry adapted basis functions of A   symmetry.
   388 basis functions,   634 primitive gaussians,   438 cartesian basis functions
    48 alpha electrons       48 beta electrons
       nuclear repulsion energy       766.1363175148 Hartrees.
 NAtoms=   21 NActive=   21 NUniq=   21 SFac= 1.00D+00 NAtFMM=   60 NAOKFM=F Big=F
 Integral buffers will be    131072 words long.
 Raffenetti 2 integral format.
 Two-electron integral symmetry is turned on.
 Nuclear repulsion after empirical dispersion term =      766.1210651816 Hartrees.
 ------------------------------------------------------------------------------
 Polarizable Continuum Model (PCM)
 =================================
 Model                : PCM.
 Atomic radii         : UFF (Universal Force Field).
 Polarization charges : Total charges.
 Charge compensation  : None.
 Solution method      : Matrix inversion.
 Cavity type          : Scaled VdW (van der Waals Surface) (Alpha=1.100).
 Cavity algorithm     : GePol (No added spheres)
                        Default sphere list used, NSphG=   21.
                        Lebedev-Laikov grids with approx.  5.0 points / Ang**2.
                        Smoothing algorithm: York/Karplus (Gamma=1.0000).
                        Polarization charges: spherical gaussians, with
                                              point-specific exponents (IZeta= 3).
                        Self-potential: point-specific (ISelfS= 7).
                        Self-field    : sphere-specific E.n sum rule (ISelfD= 2).
 1st derivatives      : Analytical E(r).r(x)/FMM algorithm (CHGder, D1EAlg=3).
                        Cavity 1st derivative terms included.
 Solvent              : Water, Eps=  78.355300 Eps(inf)=   1.777849
 ------------------------------------------------------------------------------
 One-electron integrals computed using PRISM.
   1 Symmetry operations used in ECPInt.
 ECPInt:  NShTT=   12561 NPrTT=   39621 LenC2=   12089 LenP2D=   28877.
 LDataN:  DoStor=T MaxTD1= 6 Len=  172
 NBasis=   388 RedAO= T EigKep=  8.56D-05  NBF=   388
 NBsUse=   388 1.00D-06 EigRej= -1.00D+00 NBFU=   388
 Initial guess from the checkpoint file:  "/beegfs/scratch/user/q/tla25/Gau-41026.chk"
 B after Tr=    -0.000000   -0.000000    0.000000
         Rot=    0.999982   -0.001033   -0.003211   -0.005007 Ang=  -0.69 deg.
 ExpMin= 9.52D-02 ExpMax= 6.95D+04 ExpMxC= 2.37D+03 IAcc=2 IRadAn=         4 AccDes= 0.00D+00
 Harris functional with IExCor= 4639 and IRadAn=       4 diagonalized for initial guess.
 HarFok:  IExCor= 4639 AccDes= 0.00D+00 IRadAn=         4 IDoV= 1 UseB2=F ITyADJ=14
 ICtDFT=  3500011 ScaDFX=  1.000000  1.000000  1.000000  1.000000
 FoFCou: FMM=F IPFlag=           0 FMFlag=      100000 FMFlg1=           0
         NFxFlg=           0 DoJE=T BraDBF=F KetDBF=T FulRan=T
         wScrn=  0.000000 ICntrl=       500 IOpCl=  0 I1Cent=   200000004 NGrid=           0
         NMat0=    1 NMatS0=      1 NMatT0=    0 NMatD0=    1 NMtDS0=    0 NMtDT0=    0
 Petite list used in FoFCou.
 Requested convergence on RMS density matrix=1.00D-08 within 128 cycles.
 Requested convergence on MAX density matrix=1.00D-06.
 Requested convergence on             energy=1.00D-06.
 No special actions if energy rises.
 Inv3:  Mode=1 IEnd=     7756992.
 Iteration    1 A*A^-1 deviation from unit magnitude is 3.33D-15 for   1456.
 Iteration    1 A*A^-1 deviation from orthogonality  is 1.54D-15 for   1220   1177.
 Iteration    1 A^-1*A deviation from unit magnitude is 3.33D-15 for   1456.
 Iteration    1 A^-1*A deviation from orthogonality  is 2.28D-15 for   1181    453.
 Error on total polarization charges =  0.01288
 SCF Done:  E(RwB97XD) =  -1285.61913522     A.U. after   12 cycles
            NFock= 12  Conv=0.94D-08     -V/T= 2.0023
   1 Symmetry operations used in ECPInt.
 ECPInt:  NShTT=   12561 NPrTT=   39621 LenC2=   12089 LenP2D=   28877.
 LDataN:  DoStor=T MaxTD1= 7 Len=  274
 D1PCM: PCM CHGder 1st derivatives, ID1Alg=3 FixD1E=F DoIter=F DoCFld=F I1PDM=0.
 Calling FoFJK, ICntrl=      2127 FMM=F ISym2X=0 I1Cent= 0 IOpClX= 0 NMat=1 NMatS=1 NMatT=0.
 ***** Axes restored to original set *****
 -------------------------------------------------------------------
 Center     Atomic                   Forces (Hartrees/Bohr)
 Number     Number              X              Y              Z
 -------------------------------------------------------------------
      1        6           0.000056706   -0.000035680   -0.000008666
      2        6          -0.000049517    0.000077341    0.000080669
      3        8           0.000105008   -0.000176728   -0.000058300
      4        6           0.009775640    0.002230467   -0.016298022
      5        6          -0.000008059    0.000022160   -0.000001448
      6        1           0.000005604    0.000002354   -0.000019313
      7        1          -0.000006741    0.000004650   -0.000002142
      8        1          -0.000013196   -0.000016983   -0.000002871
      9        7          -0.009649991   -0.002028667    0.016032022
     10        1          -0.000004601    0.000014487    0.000024985
     11        1           0.000010697   -0.000000057   -0.000017815
     12        6          -0.000040130   -0.000056900    0.000091831
     13        1           0.000007566    0.000009477   -0.000009248
     14        1           0.000008409    0.000001350   -0.000003227
     15        1           0.000001131    0.000005662    0.000000418
     16       17          -0.000054373   -0.000061578    0.000041291
     17       17          -0.000085254   -0.000060669    0.000122330
     18        6          -0.000072713    0.000079145    0.000023068
     19        1           0.000011264   -0.000005313   -0.000022939
     20        1          -0.000014660    0.000009692    0.000007048
     21        1           0.000017211   -0.000014210    0.000020329
 -------------------------------------------------------------------
 Cartesian Forces:  Max     0.016298022 RMS     0.003381925

 GradGradGradGradGradGradGradGradGradGradGradGradGradGradGradGradGradGrad
 Berny optimization.
 FormGI is forming the generalized inverse of G from B-inverse, IUseBI=4.
 Internal  Forces:  Max     0.018815190 RMS     0.001891404
 Search for a saddle point.
 Step number   2 out of a maximum of   70
 All quantities printed in internal units (Hartrees-Bohrs-Radians)
 Swapping is turned off.
 Update second derivatives using D2CorX and points    1    2
 ITU=  0  0
     Eigenvalues ---   -0.02399  -0.00839   0.00136   0.00154   0.00200
     Eigenvalues ---    0.00297   0.00974   0.01691   0.02338   0.03573
     Eigenvalues ---    0.03719   0.04428   0.04514   0.04665   0.04765
     Eigenvalues ---    0.05132   0.05177   0.05462   0.05556   0.07674
     Eigenvalues ---    0.08496   0.09515   0.12120   0.12399   0.12545
     Eigenvalues ---    0.12900   0.13218   0.13846   0.14549   0.14756
     Eigenvalues ---    0.15569   0.17238   0.17654   0.18158   0.18955
     Eigenvalues ---    0.19707   0.20463   0.21206   0.22973   0.26630
     Eigenvalues ---    0.31269   0.31770   0.32208   0.34036   0.34126
     Eigenvalues ---    0.34628   0.34641   0.34881   0.34996   0.35003
     Eigenvalues ---    0.35235   0.35346   0.36536   0.44801   0.45046
     Eigenvalues ---    0.52007   0.82726
 Eigenvectors required to have negative eigenvalues:
                          R6        D7        D5        D3        D4
   1                   -0.80830   0.25104   0.17498   0.16627   0.15505
                          R8        A10       D26       D27       D9
   1                    0.13764   0.12664   0.12347   0.12041  -0.11874
 RFO step:  Lambda0=7.369885775D-03 Lambda=-9.78466162D-03.
 Linear search not attempted -- option 19 set.
 Maximum step size (   0.030) exceeded in Quadratic search.
    -- Step size scaled by   0.099
 Iteration  1 RMS(Cart)=  0.01302043 RMS(Int)=  0.00006555
 Iteration  2 RMS(Cart)=  0.00009283 RMS(Int)=  0.00001135
 Iteration  3 RMS(Cart)=  0.00000001 RMS(Int)=  0.00001135
 Variable       Old X    -DE/DX   Delta X   Delta X   Delta X     New X
                                 (Linear)    (Quad)   (Total)
    R1        2.83724   0.00001   0.00000  -0.00069  -0.00069   2.83655
    R2        2.59362   0.00001   0.00000   0.00484   0.00484   2.59846
    R3        3.34169   0.00001   0.00000   0.00276   0.00276   3.34445
    R4        2.29515   0.00001   0.00000   0.00069   0.00069   2.29584
    R5        2.83713   0.00000   0.00000   0.00047   0.00047   2.83760
    R6        3.51753   0.01882   0.00000  -0.02534  -0.02534   3.49219
    R7        2.84399  -0.00002   0.00000   0.00102   0.00102   2.84501
    R8        3.43348  -0.00006   0.00000   0.00597   0.00597   3.43946
    R9        2.05544   0.00001   0.00000  -0.00025  -0.00025   2.05518
   R10        2.05633  -0.00000   0.00000  -0.00037  -0.00037   2.05596
   R11        2.05943   0.00000   0.00000  -0.00039  -0.00039   2.05904
   R12        2.76585  -0.00001   0.00000   0.00114   0.00114   2.76699
   R13        1.91860   0.00001   0.00000   0.00023   0.00023   1.91883
   R14        1.91711  -0.00000   0.00000   0.00025   0.00025   1.91736
   R15        2.05662  -0.00000   0.00000   0.00012   0.00012   2.05674
   R16        2.05877   0.00000   0.00000  -0.00027  -0.00027   2.05850
   R17        2.05741  -0.00000   0.00000  -0.00003  -0.00003   2.05738
   R18        2.06049   0.00001   0.00000  -0.00010  -0.00010   2.06039
   R19        2.05707  -0.00000   0.00000   0.00007   0.00007   2.05714
   R20        2.06626   0.00000   0.00000  -0.00003  -0.00003   2.06623
    A1        2.16166   0.00004   0.00000  -0.00231  -0.00236   2.15931
    A2        1.95047  -0.00001   0.00000  -0.00102  -0.00108   1.94939
    A3        2.08794  -0.00005   0.00000  -0.00362  -0.00367   2.08428
    A4        2.11760  -0.00002   0.00000   0.00155   0.00155   2.11915
    A5        2.04597  -0.00001   0.00000   0.00024   0.00024   2.04621
    A6        2.11862   0.00002   0.00000  -0.00185  -0.00185   2.11677
    A7        1.97131  -0.00004   0.00000   0.00347   0.00348   1.97480
    A8        2.11977   0.00003   0.00000  -0.00378  -0.00382   2.11595
    A9        1.96734   0.00004   0.00000  -0.00152  -0.00155   1.96580
   A10        1.75032  -0.00003   0.00000   0.00617   0.00618   1.75649
   A11        1.64094  -0.00001   0.00000   0.00254   0.00256   1.64349
   A12        1.94227  -0.00000   0.00000  -0.00382  -0.00384   1.93843
   A13        1.90972   0.00000   0.00000   0.00137   0.00137   1.91108
   A14        1.90349  -0.00000   0.00000   0.00081   0.00081   1.90430
   A15        1.91155  -0.00002   0.00000  -0.00021  -0.00021   1.91133
   A16        1.90620  -0.00001   0.00000   0.00109   0.00108   1.90728
   A17        1.88995  -0.00001   0.00000  -0.00015  -0.00015   1.88979
   A18        1.94271   0.00004   0.00000  -0.00283  -0.00284   1.93987
   A19        1.97133  -0.00006   0.00000   0.00080   0.00080   1.97212
   A20        1.95854   0.00004   0.00000  -0.00441  -0.00441   1.95413
   A21        1.79584   0.00000   0.00000   0.00393   0.00393   1.79978
   A22        1.94331   0.00001   0.00000   0.00019   0.00018   1.94349
   A23        1.91727   0.00003   0.00000  -0.00011  -0.00011   1.91715
   A24        1.86884  -0.00001   0.00000  -0.00010  -0.00010   1.86875
   A25        1.93922   0.00000   0.00000   0.00028   0.00028   1.93950
   A26        1.90833  -0.00001   0.00000  -0.00068  -0.00068   1.90765
   A27        1.92662  -0.00000   0.00000   0.00033   0.00033   1.92694
   A28        1.89670   0.00000   0.00000  -0.00012  -0.00012   1.89659
   A29        1.90248   0.00000   0.00000   0.00025   0.00025   1.90273
   A30        1.88958   0.00000   0.00000  -0.00007  -0.00007   1.88951
   A31        1.91888   0.00002   0.00000   0.00086   0.00086   1.91974
   A32        1.94375  -0.00001   0.00000   0.00002   0.00002   1.94378
   A33        1.88626  -0.00001   0.00000  -0.00066  -0.00066   1.88560
   A34        1.93157  -0.00000   0.00000  -0.00014  -0.00014   1.93143
   A35        1.86300  -0.00000   0.00000  -0.00024  -0.00024   1.86277
   A36        1.91810  -0.00000   0.00000   0.00013   0.00013   1.91823
    D1        1.45657   0.00013   0.00000   0.00588   0.00588   1.46244
    D2       -1.73233   0.00011   0.00000   0.00454   0.00454  -1.72779
    D3       -1.25429   0.00020   0.00000   0.02374   0.02375  -1.23054
    D4        1.84000   0.00018   0.00000   0.02241   0.02241   1.86241
    D5       -1.08607   0.00002   0.00000   0.01794   0.01793  -1.06814
    D6        3.11847   0.00008   0.00000   0.00897   0.00897   3.12744
    D7        0.74754  -0.00000   0.00000   0.02210   0.02209   0.76963
    D8        1.59307  -0.00005   0.00000  -0.00062  -0.00061   1.59246
    D9       -0.48558   0.00001   0.00000  -0.00959  -0.00957  -0.49515
   D10       -2.85651  -0.00007   0.00000   0.00354   0.00355  -2.85296
   D11        0.93368  -0.00001   0.00000  -0.00110  -0.00110   0.93258
   D12        3.08112  -0.00001   0.00000  -0.00066  -0.00066   3.08045
   D13       -1.09358  -0.00002   0.00000  -0.00092  -0.00092  -1.09449
   D14       -2.25525  -0.00003   0.00000  -0.00234  -0.00234  -2.25759
   D15       -0.10781  -0.00003   0.00000  -0.00190  -0.00190  -0.10971
   D16        2.00068  -0.00004   0.00000  -0.00215  -0.00215   1.99853
   D17       -1.01804  -0.00000   0.00000  -0.00413  -0.00414  -1.02218
   D18        3.05102   0.00001   0.00000  -0.00137  -0.00138   3.04964
[...]
 476375,0.00345372,-0.00028390,0.00064521,0.00007761,0.09813291,-0.0896
 0522,0.02608550,-0.10167168,0.09306858,0.00713129,-0.00214911,-0.00111
 584,-0.00466159,-0.00019027,-0.00165238,0.00258622,-0.00159130,0.00046
 449,0.00454137,-0.00191186,0.01103931,-0.02062240,0.00790601,-0.005818
 68,0.00081305,-0.00070131,0.00105103,0.00228152,0.00267191,-0.00219040
 ,-0.00036765,0.00003113,-0.00032511,-0.05263244,0.01543605,-0.04826836
 ,0.08007096,-0.02689962,0.05441023,-0.00386870,0.00036865,-0.00109049,
 0.00251707,0.00128497,0.00114175,-0.00099434,-0.00009466,-0.00028629,0
 .00877113,0.00360712,-0.00070808,0.00222707,0.00194953,0.00269748,0.00
 137291,0.00097304,0.00001685,0.00045044,0.00032360,0.00010326,-0.00006
 433,-0.00016679,-0.00020847,-0.13387877,-0.11800716,-0.08480738,-0.015
 20302,-0.02973839,-0.01865736,0.14029841,-0.00114505,-0.00014665,-0.00
 068697,0.00154199,0.00013187,0.00015141,-0.00067986,0.00025837,-0.0000
 8532,0.00302159,-0.00047362,-0.00292267,-0.01420930,-0.02295701,-0.014
 89460,0.00133173,-0.00334325,0.00377888,0.00033217,0.00015473,-0.00044
 141,-0.00025911,0.00150645,0.00008018,-0.13673524,-0.26618735,-0.12763
 669,0.00773620,0.00971153,0.00594272,0.13977966,0.28101838,0.00237512,
 0.00018535,0.00048648,-0.00075625,-0.00043765,-0.00045528,0.00033984,-
 0.00007007,0.00010562,-0.00834493,-0.00735019,-0.00344883,0.01345524,0
 .02040599,0.00974276,-0.00071214,0.00425640,-0.00205769,-0.00071728,-0
 .00047853,0.00053897,0.00059249,0.00008458,0.00081559,-0.10725263,-0.1
 4586466,-0.13188911,-0.00009515,-0.00555156,-0.00387137,0.09913386,0.1
 3421886,0.13260511,-0.02065026,-0.00367869,-0.01565051,0.00176106,0.00
 367996,-0.00199257,-0.00207627,-0.00054022,0.00017704,-0.15979914,-0.0
 3160093,-0.05975037,-0.00023637,0.00078353,0.00027985,0.00013054,-0.00
 017664,-0.00001777,-0.00013467,-0.00014981,-0.00001326,-0.00011191,-0.
 00037489,0.00011804,0.00456299,0.00354811,0.00607106,0.00101776,0.0001
 7419,0.00118840,-0.00115009,-0.00013125,0.00157268,0.53772276,0.012254
 02,0.01274644,0.00907935,0.00031657,-0.00345278,-0.00110610,0.00242254
 ,-0.00002496,0.00080689,-0.02953125,-0.08640922,-0.02159372,0.00015119
 ,-0.00015039,0.00011459,0.00008684,-0.00013493,0.00052104,-0.00007688,
 -0.00012051,-0.00014911,-0.00001877,-0.00000507,-0.00006179,-0.0002871
 6,-0.00036501,-0.00520017,0.00010669,0.00019255,-0.00090142,0.00028530
 ,0.00001138,-0.00032137,-0.03537143,0.59176724,-0.00308043,0.00083412,
 0.00175800,-0.00191890,-0.00180476,0.00379765,0.00125685,-0.00006928,-
 0.00099726,-0.06185151,-0.02187971,-0.10037420,0.00024639,-0.00189266,
 -0.00061389,-0.00009197,0.00019597,-0.00026120,-0.00001169,0.00003961,
 -0.00025088,0.00021919,0.00087037,-0.00022844,-0.00797461,-0.01125962,
 -0.02708646,-0.00083948,-0.00002210,0.00067183,0.00210540,0.00087806,-
 0.00392778,-0.04318795,-0.02335646,0.54388425,-0.00338246,-0.00306920,
 -0.00340220,0.00169438,0.00134439,0.00016187,-0.00147204,0.00028566,-0
 .00015858,-0.02039404,0.01689234,0.00115138,-0.00003126,0.00015370,0.0
 0008327,-0.00002573,0.00001772,0.00000313,0.00003266,-0.00004794,0.000
 08140,0.00005561,-0.00005902,0.00007230,0.00059427,-0.00022739,0.00122
 428,0.00032769,0.00008335,-0.00060957,0.00012030,-0.00003804,0.0001781
 3,-0.19773131,0.13537858,-0.00170756,0.21506442,-0.00195240,-0.0017321
 0,-0.00196942,0.00016798,0.00067775,-0.00021127,-0.00026377,0.00016454
 ,0.00011275,-0.01189545,0.00550356,-0.00113958,-0.00009849,-0.00020648
 ,0.00014732,0.00010539,0.00003957,-0.00000899,-0.00003512,-0.00001156,
 -0.00002275,0.00003699,0.00004392,0.00002978,-0.00071064,0.00009496,-0
 .00001448,0.00018153,0.00015821,0.00067789,-0.00018154,0.00006497,-0.0
 0009352,0.14211691,-0.17504480,0.00181626,-0.14871404,0.18697973,-0.00
 154554,-0.00261297,-0.00069988,-0.00038534,0.00062527,0.00046601,-0.00
 035436,0.00000863,-0.00026565,-0.01581170,0.01318388,-0.00300140,0.000
 20808,0.00017850,-0.00012114,-0.00005617,-0.00005032,-0.00001849,-0.00
 002167,-0.00005702,0.00008700,-0.00005476,-0.00004555,0.00000498,-0.00
 028101,0.00038778,-0.00004388,0.00011999,-0.00001420,-0.00233229,0.000
 05050,-0.00001895,0.00016196,0.00140532,-0.00072144,-0.04719810,0.0036
 9417,0.00161254,0.05086769,-0.00128378,-0.00048076,-0.00103435,0.00077
 596,-0.00024473,0.00131001,-0.00039039,0.00034424,-0.00036841,0.006668
 18,-0.00329981,-0.02354097,0.00003083,-0.00017677,-0.00028499,-0.00001
 903,0.00013459,-0.00008503,0.00010389,-0.00000057,0.00001445,0.0001250
 0,0.00019924,-0.00003538,-0.00143985,-0.00145558,-0.00221077,-0.000084
 98,-0.00020580,-0.00060635,0.00063263,0.00013392,-0.00050332,-0.072779
 52,0.01232822,0.08129911,-0.00629190,0.00194544,0.02175123,0.07774811,
 0.00079329,-0.00030657,0.00053177,-0.00008040,-0.00015756,0.00003107,0
 .00006208,-0.00001137,-0.00002751,0.00273106,-0.00347107,-0.01044021,0
 .00006117,-0.00033195,-0.00045188,0.00000925,0.00016846,-0.00015325,0.
 00001813,0.00008116,0.00004461,0.00001053,0.00019565,-0.00007520,-0.00
 103821,-0.00011949,-0.00122021,-0.00024875,-0.00000784,0.00047772,0.00
 015049,0.00023371,-0.00034043,0.01313065,-0.05062921,-0.03933445,0.005
 20403,-0.00289915,-0.02031039,-0.01282704,0.05158783,-0.00032058,-0.00
 153092,0.00070626,0.00002329,-0.00006236,0.00049532,-0.00000872,0.0002
 0269,-0.00015638,0.00501566,-0.00211483,-0.01829259,0.00007197,-0.0003
 5720,0.00013634,-0.00000729,-0.00000822,0.00009981,-0.00000074,0.00001
 220,-0.00003812,0.00005315,0.00013319,-0.00005059,-0.00237794,-0.00112
 071,-0.00043390,-0.00027260,0.00018358,0.00031008,0.00040515,0.0002039
 1,-0.00058340,0.07940652,-0.03928235,-0.28750739,-0.00059926,0.0007464
 9,0.00240323,-0.08453007,0.04439253,0.31135315,-0.00135850,-0.00076774
 ,-0.00150528,0.00118158,0.00032251,-0.00017934,-0.00043696,0.00035502,
 0.00019370,-0.00664947,-0.01994043,0.01084637,-0.00001040,0.00004223,-
 0.00023903,0.00016074,0.00006108,0.00002332,-0.00000742,-0.00003226,0.
 00000615,0.00003145,0.00010035,0.00004489,-0.00005138,0.00050412,0.000
 88381,0.00000436,0.00009186,-0.00005391,-0.00016223,0.00002583,0.00021
 715,-0.07840176,-0.07952285,0.03135170,0.00995573,0.01982096,-0.009373
 15,-0.00356777,-0.00779809,0.00292535,0.08256094,0.00076475,-0.0008853
 9,-0.00043337,-0.00025187,-0.00011816,-0.00006704,0.00015051,0.0000781
 8,0.00012322,-0.00401918,-0.00986771,0.00284388,0.00003789,0.00018797,
 -0.00032265,-0.00009783,0.00025573,0.00012821,0.00007236,0.00004812,0.
 00006810,0.00003340,0.00006970,0.00004100,0.00043906,0.00036105,0.0002
 7633,0.00003605,-0.00043761,-0.00029876,-0.00000651,-0.00000980,0.0003
 6903,-0.08160992,-0.25505364,0.08997550,-0.00756433,-0.01460667,0.0069
 4206,0.00263816,0.00507645,-0.00226218,0.08806354,0.27650697,0.0008465
 5,0.00030336,0.00064679,-0.00030688,-0.00000969,-0.00053178,0.00018524
 ,-0.00019561,0.00013925,-0.00593930,-0.01617981,0.00568536,-0.00053953
 ,-0.00063863,-0.00052957,0.00022507,0.00040677,-0.00116547,0.00003364,
 0.00002338,0.00000518,0.00011877,0.00022217,0.00010711,0.00042097,0.00
 021820,0.00036275,0.00015071,-0.00019981,-0.00021344,-0.00008883,0.000
 05396,0.00026390,0.03417297,0.09099345,-0.08449450,-0.00058619,-0.0014
 8656,-0.00066463,0.00931339,0.02640597,-0.00937264,-0.03422006,-0.0967
 2293,0.09016787,0.00278250,0.01583300,-0.00245685,0.00179752,-0.000736
 33,0.00128481,-0.00122083,0.00131454,-0.00027479,-0.03714982,-0.009213
 51,-0.00119989,-0.00138732,0.00136587,0.00166853,-0.00004133,-0.000028
 93,-0.00013557,0.00005362,0.00006768,-0.00002139,0.00003876,-0.0007175
 5,0.00040612,-0.00133990,-0.01139486,0.00733306,-0.00035797,-0.0000573
 8,-0.00027246,0.00027548,-0.00018819,-0.00021400,-0.00537429,-0.024294
 07,0.00339747,0.00117812,-0.00198427,0.00067422,0.00010476,-0.00007758
 ,-0.00019874,-0.00170761,-0.00219503,-0.00284413,0.05156930,0.00952676
 ,-0.02949333,0.00617909,-0.00936831,0.00127256,-0.00715035,0.00518316,
 -0.00314601,0.00167722,-0.01052237,-0.10085438,0.00044066,-0.00223377,
 0.00295628,0.00276146,-0.00011384,-0.00003455,-0.00025601,0.00027807,0
 .00005056,-0.00042475,-0.00000992,-0.00139271,0.00077681,-0.01026253,-
 0.01212653,0.01260010,-0.00043305,-0.00055425,0.00163271,0.00038033,-0
 .00047019,0.00046476,-0.00991771,-0.03032542,0.00629951,0.00089746,0.0
 0121689,0.00091558,0.00068729,0.00013046,0.00019644,-0.00271012,-0.001
 17537,-0.00379278,0.02593978,0.17794993,0.00559936,0.00267104,0.006074
 06,-0.00325490,-0.00028754,-0.00216025,0.00179861,-0.00084271,0.000425
 51,-0.00775820,0.01552274,-0.02698119,0.00320579,-0.00283836,-0.002930
 76,0.00017210,0.00034284,-0.00007169,-0.00013435,-0.00004767,0.0000435
 8,0.00000335,0.00166971,-0.00087035,0.01035224,0.02061463,-0.01628804,
 0.00048744,0.00030284,-0.00119754,-0.00007011,0.00127227,0.00084467,-0
 .00312965,-0.01096378,0.00454384,0.00025200,-0.00068429,0.00009204,0.0
 0019335,0.00023090,0.00059196,-0.00132465,-0.00080308,-0.00039796,0.00
 177509,-0.02869103,0.04284909,-0.03407801,-0.00494602,-0.00834458,-0.0
 0414069,-0.02384270,-0.00843408,-0.00159618,-0.00672675,-0.00220124,-0
 .00090546,0.01744515,0.00308567,-0.00033372,-0.00016615,0.00082910,0.0
 0009210,0.00014996,0.00011863,-0.00017738,0.00000070,0.00025876,0.0000
 5933,0.00000954,0.00015368,-0.00031574,0.00013556,-0.00048383,0.000015
 04,-0.00005075,0.00006552,-0.00011325,-0.00003308,0.00004750,-0.006816
 43,0.00545724,0.00079336,0.00035256,0.00148389,-0.00004409,-0.00025351
 ,-0.00005457,0.00038004,-0.00167174,0.00353252,-0.00101230,-0.00022696
 ,0.00083828,-0.00077883,0.05251781,-0.00927435,-0.13434445,-0.03884481
 ,0.00365705,-0.03561214,-0.00894571,0.00068555,0.00661707,0.00272130,-
 0.00484849,-0.02880214,-0.00386485,0.00037613,-0.00035391,-0.00024676,
 0.00020429,-0.00003616,-0.00015367,-0.00029824,-0.00020592,-0.00039060
 ,-0.00020618,0.00052036,-0.00027068,0.00234564,-0.00076188,-0.00250114
 ,0.00003406,0.00005105,-0.00038752,-0.00006781,0.00016713,0.00015459,0
 .00042695,-0.00333034,-0.00140969,-0.00029275,-0.00040182,-0.00002060,
 0.00034763,0.00047367,0.00064326,0.00139035,-0.00050244,0.00052420,0.0
 0297537,-0.00534305,-0.00028360,0.00649135,0.20081779,-0.00855706,-0.0
 3513966,-0.02532459,-0.00524683,-0.02058514,-0.00447762,0.00199051,-0.
 00069965,-0.00276573,-0.00455363,-0.00356321,0.00392425,0.00012359,-0.
 00017782,-0.00086965,-0.00014935,-0.00006569,-0.00018961,0.00033639,-0
 .00021698,-0.00074278,-0.00007772,0.00028204,-0.00034691,0.00383714,-0
 .00158623,-0.00224339,0.00015595,-0.00003197,-0.00096735,0.00006044,0.
 00020112,0.00003483,-0.00080335,0.00198897,-0.00131159,0.00012234,0.00
 047629,0.00030766,-0.00060539,0.00026179,0.00035376,0.00031948,0.00011
 998,-0.00006636,-0.00134901,0.00422094,0.00079030,0.01811802,0.0556603
 6,0.03247857,0.00150744,-0.01836944,-0.00972061,-0.09398267,-0.0308147
 9,-0.01429351,0.00614489,0.04112060,0.00721948,0.00055119,-0.00017193,
 -0.00131027,-0.00015985,-0.00003743,0.00012534,0.00006312,0.00000607,-
 0.00001155,0.00009659,-0.00002380,-0.00013891,0.00001211,-0.00003033,0
 .00001566,-0.00004544,0.00052339,0.00097846,0.00009265,0.00003215,0.00
 001462,-0.00102050,-0.00026268,-0.00005849,-0.00002477,0.00014917,0.00
 009103,-0.00002411,-0.00001576,0.00005327,0.00000913,-0.00002990,0.000
 04070,0.00011279,-0.00004884,-0.00000981,-0.00523126,0.00108453,-0.003
 24276,-0.00252849,-0.00356928,-0.00321201,0.58449994,-0.00909242,-0.00
 337679,-0.01064529,-0.02338570,-0.14912932,-0.03545172,0.01951062,-0.0
 4545256,-0.01900725,0.00300318,-0.00282868,-0.00127304,0.00013755,0.00
 051245,-0.00023200,0.00005485,-0.00008328,-0.00000261,0.00002998,-0.00
 000461,-0.00009420,0.00000817,-0.00009124,0.00009170,-0.00118914,0.000
 77332,0.00185263,0.00013184,-0.00011206,-0.00005576,0.00022683,-0.0002
 9388,0.00011241,-0.00014351,0.00018063,-0.00008497,-0.00011067,-0.0000
 5551,0.00003478,-0.00008052,-0.00002794,-0.00001182,-0.00001108,0.0000
 4287,0.00007459,0.00054291,0.00045280,0.00063894,0.00159000,0.00299206
 ,-0.00014380,-0.04551618,0.49025460,-0.00112689,-0.01397506,0.00633220
 ,-0.01678321,-0.04626553,-0.10801622,0.00143313,-0.01229495,0.01492548
 ,-0.00211839,0.00258233,0.00057762,-0.00005775,-0.00000711,-0.00004019
 ,-0.00001067,-0.00001366,0.00001140,-0.00011830,-0.00002972,0.00015052
 ,0.00001054,0.00002635,0.00000549,0.00022346,-0.00059551,-0.00071460,0
 .00001084,-0.00006668,-0.00024311,0.00074959,0.00009550,-0.00031675,0.
 00017904,-0.00005356,-0.00027685,0.00012586,0.00004071,-0.00006870,-0.
 00003615,-0.00000027,-0.00001163,0.00005089,-0.00002155,0.00001976,-0.
 00429855,0.00075602,-0.00397330,-0.00209765,-0.00155771,0.00173213,0.0
 0242476,-0.02733004,0.53911868,-0.00079352,0.00007364,-0.00030442,0.00
 683579,-0.00169503,-0.00501145,0.00081567,-0.00077619,0.00128509,0.000
 32583,-0.00011013,-0.00141075,0.00004789,0.00003357,0.00011952,0.00002
 589,0.00005047,-0.00005299,0.00003129,0.00003494,-0.00001121,0.0000032
 8,0.00000681,-0.00000614,-0.00079280,-0.00045960,0.00038983,0.00013926
 ,0.00015257,-0.00015996,-0.00087513,-0.00005996,0.00086801,-0.00002305
 ,0.00000273,0.00004064,0.00002166,-0.00001833,-0.00002778,-0.00002459,
 0.00000936,0.00002185,-0.00000498,-0.00001065,0.00003603,-0.00233325,0
 .00026111,-0.00314822,0.00019623,0.00025602,0.00024744,-0.22714130,0.0
 8290981,0.10255500,0.24741423,-0.00227743,0.00016473,0.00030461,0.0275
 5105,-0.00370155,-0.00826388,-0.00092606,-0.00916238,-0.00228899,0.000
 81072,-0.00109340,-0.00145660,-0.00037865,-0.00027758,0.00022069,0.000
 06824,0.00002095,-0.00001175,0.00002155,-0.00016202,-0.00005825,0.0000
 3783,-0.00002327,-0.00001546,-0.00020217,0.00005757,0.00046952,0.00003
 645,0.00018018,0.00012532,-0.00072251,0.00066903,0.00013676,-0.0000743
 4,-0.00000807,0.00006308,-0.00002002,0.00000029,-0.00001040,0.00002324
 ,0.00001463,0.00002147,-0.00001127,-0.00000381,-0.00001688,0.00053849,
 0.00030633,0.00116435,-0.00010356,0.00002277,0.00039407,0.08311696,-0.
 08282121,-0.05299463,-0.09145226,0.08904118,-0.00227300,-0.00014828,-0
 .00037820,0.01264264,0.00273166,-0.00490416,-0.00023283,-0.00329825,0.
 00058503,0.00064675,-0.00223249,-0.00095829,0.00009312,0.00008836,-0.0
 0003402,-0.00002025,0.00001727,-0.00000568,-0.00001485,-0.00003715,-0.
 00001969,0.00001991,-0.00000238,-0.00001680,-0.00027569,0.00047499,0.0
 0060224,-0.00001901,0.00001502,0.00009858,-0.00000337,-0.00017006,0.00
 082490,0.00001494,0.00011815,-0.00013433,-0.00005100,-0.00000068,-0.00
 000321,-0.00002363,-0.00000418,0.00000018,0.00003279,0.00005751,0.0000
 3274,-0.00062669,0.00096642,-0.00082052,-0.00008553,0.00002030,0.00017
 218,0.09980261,-0.05160321,-0.10455814,-0.11045993,0.05381479,0.107777
 39,0.00122590,-0.00073043,-0.00004323,-0.00813514,0.00015228,-0.004954
 09,0.00194193,0.00213601,0.00271858,0.00001448,0.00053033,0.00048333,-
 0.00001131,0.00010988,-0.00004985,-0.00000506,-0.00002508,0.00000865,0
 .00002959,0.00004464,-0.00003010,-0.00001170,-0.00001537,0.00002318,-0
 .00009413,-0.00003464,-0.00006022,-0.00001596,-0.00008535,-0.00001723,
 0.00048103,-0.00001903,-0.00019461,0.00003653,0.00000202,0.00000889,0.
 00000854,0.00001698,-0.00000764,-0.00002034,-0.00000653,-0.00001201,-0
 .00000496,-0.00001703,-0.00000151,-0.00045640,0.00005301,-0.00077550,-
 0.00009186,-0.00043137,-0.00033355,-0.19818469,0.02493458,-0.13629823,
 -0.01600339,0.00149287,-0.01669689,0.21078061,0.00157051,-0.00308306,-
 0.00021451,-0.02501861,-0.00139990,-0.02383433,-0.00069655,0.00309301,
 0.00196754,0.00034124,-0.00090316,-0.00025369,0.00000538,0.00001029,0.
 00000214,0.00000590,0.00000770,-0.00000656,0.00001250,-0.00000369,-0.0
 0002555,0.00000179,0.00000499,-0.00000044,-0.00010820,0.00012414,0.000
 20742,0.00000977,0.00002264,0.00003382,-0.00019636,-0.00004248,0.00009
 013,0.00002751,0.00010840,-0.00002841,-0.00004480,0.00002011,-0.000014
 82,-0.00001531,-0.00000951,0.00000331,0.00003485,0.00002297,0.00001475
 ,0.00117311,0.00017582,0.00084988,-0.00117711,-0.00153170,-0.00060797,
 0.02812536,-0.04752747,0.02321123,0.00670376,-0.00176601,0.00815765,-0
 .02717483,0.05436022,-0.00028723,-0.00149036,-0.00009319,-0.01129234,0
 .00326566,-0.01042123,0.00145844,0.00143332,0.00221982,0.00131709,-0.0
 0070451,-0.00058347,-0.00003028,0.00007939,0.00003320,0.00000657,0.000
 00370,-0.00001280,0.00000517,-0.00002408,-0.00003131,0.00000219,-0.000
 02691,0.00001822,-0.00025759,0.00011589,0.00044233,0.00002804,0.000047
 04,0.00006958,-0.00031440,-0.00003698,0.00008620,-0.00002235,0.0000195
 0,0.00003690,-0.00001698,0.00000921,0.00000515,-0.00000376,-0.00000250
 ,0.00000408,-0.00000419,-0.00000975,-0.00000144,-0.00041665,0.00024955
 ,0.00028816,-0.00052171,-0.00080111,-0.00004029,-0.13419128,0.02006677
 ,-0.16969691,0.01175622,-0.00134861,0.01187919,0.14885418,-0.02185476,
 0.17910102,-0.00104863,-0.00008016,-0.00167945,-0.00331576,-0.00282620
 ,0.00416701,-0.00027390,0.00102377,0.00089414,0.00075609,-0.00170100,0
 .00006501,0.00012238,0.00012079,-0.00011969,0.00000145,-0.00002091,0.0
 0000283,0.00001915,0.00004277,-0.00004114,-0.00000887,0.00000315,0.000
 01695,-0.00021217,0.00039112,0.00042664,0.00003789,-0.00006333,-0.0000
 3203,0.00018390,-0.00014230,0.00006877,0.00007821,0.00016130,-0.000145
 95,-0.00005309,-0.00000625,0.00000642,-0.00004285,-0.00001897,-0.00001
 574,0.00002760,0.00005296,0.00004519,-0.00097313,0.00044184,-0.0002221
 6,0.00001636,-0.00020192,-0.00042340,-0.06474675,-0.05355107,0.0551826
 7,-0.00786499,-0.01752913,0.01752992,0.00851635,0.01642008,-0.01606912
 ,0.06878077,-0.00058121,0.00051648,-0.00242635,-0.00714964,-0.01825095
 ,0.02289645,0.00093857,-0.00045939,-0.00458506,0.00104829,-0.00141276,
 -0.00034458,0.00000540,0.00007413,-0.00001416,0.00000204,-0.00000417,-
 0.00000449,0.00002838,-0.00000430,-0.00007009,-0.00000543,-0.00002669,
 0.00001659,-0.00039228,0.00029518,0.00039750,-0.00001835,0.00002903,0.
 00015165,-0.00014778,-0.00000333,0.00002911,-0.00011847,0.00004770,0.0
 0016962,-0.00006902,-0.00000643,-0.00001234,0.00000489,0.00000965,0.00
 001152,-0.00001885,0.00001061,0.00000189,0.00113696,0.00040417,0.00016
 193,-0.00003351,-0.00043595,-0.00078746,-0.05526788,-0.16340416,0.1284
 9387,0.00408735,0.00854164,-0.00896545,-0.00093294,-0.00168332,0.00100
 955,0.05748348,0.17576286,-0.00160903,0.00051276,-0.00154857,-0.004168
 37,-0.00918638,0.01343392,0.00096442,0.00011506,-0.00162491,0.00110850
 ,-0.00074399,-0.00047885,-0.00004739,0.00009854,0.00003513,0.00000541,
 -0.00000244,-0.00000702,0.00001713,-0.00002839,-0.00004367,0.00000148,
 -0.00003848,0.00002108,-0.00034584,0.00009124,0.00047816,0.00000859,0.
 00003281,0.00008074,-0.00022948,0.00001680,0.00003923,-0.00001809,0.00
 006931,-0.00002961,-0.00001878,-0.00003772,0.00002167,-0.00001297,-0.0
 0001588,-0.00000753,0.00000400,-0.00000350,0.00000710,-0.00223060,0.00
 017764,-0.00085162,0.00015357,-0.00004557,-0.00044780,0.05542326,0.123
 06390,-0.17495688,0.00327321,0.00975079,-0.01013939,0.00737785,0.01230
 318,-0.01330322,-0.05965687,-0.13612969,0.18932205\\0.00000281,-0.0000
 0261,0.00000418,-0.00000041,-0.00000119,0.00000419,-0.00000012,-0.0000
 0635,0.00000940,0.00000005,0.00000207,-0.00000014,-0.00000505,0.000002
 46,-0.00000257,-0.00000500,0.00000328,-0.00000358,-0.00000569,0.000001
 74,0.00000042,-0.00000770,0.00000439,-0.00000361,-0.00000132,0.0000015
 5,-0.00000495,-0.00000056,0.00000392,-0.00000643,-0.00000145,0.0000021
 2,-0.00000318,0.00000388,0.00000061,-0.00000372,0.00000532,0.00000199,
 -0.00000638,0.00000655,-0.00000070,-0.00000260,0.00000170,0.00000157,-
 0.00000372,0.00000490,-0.00000084,-0.00000276,0.00000086,-0.00000272,0
 .00000422,0.00000053,-0.00000266,0.00000529,-0.00000078,-0.00000114,0.
 00000287,-0.00000181,-0.00000366,0.00000729,0.00000330,-0.00000383,0.0
 0000578\\\@


 I LOVE MANKIND - IT'S PEOPLE I CAN'T STAND.
     -- LINUS OF PEANUTS
 Job cpu time:       0 days  2 hours 41 minutes 29.2 seconds.
 Elapsed time:       0 days  0 hours  6 minutes 45.1 seconds.
 File lengths (MBytes):  RWF=    377 Int=      0 D2E=      0 Chk=     22 Scr=      1
 Normal termination of Gaussian 16 at Tue Apr 13 07:52:04 2021.
