 Entering Gaussian System, Link 0=g16
 Initial command:
 /apps/gaussian/16/A.03/g16/l1.exe "/beegfs/scratch/user/q/tla25/Gau-43807.inp" -scrdir="/beegfs/scratch/user/q/tla25/"
 Entering Link 1 = /apps/gaussian/16/A.03/g16/l1.exe PID=     43808.
  
 Copyright (c) 1988,1990,1992,1993,1995,1998,2003,2009,2016,
            Gaussian, Inc.  All Rights Reserved.
  
 This is part of the Gaussian(R) 16 program.  It is based on
 the Gaussian(R) 09 system (copyright 2009, Gaussian, Inc.),
 the Gaussian(R) 03 system (copyright 2003, Gaussian, Inc.),
 the Gaussian(R) 98 system (copyright 1998, Gaussian, Inc.),
 the Gaussian(R) 94 system (copyright 1995, Gaussian, Inc.),
 the Gaussian 92(TM) system (copyright 1992, Gaussian, Inc.),
 the Gaussian 90(TM) system (copyright 1990, Gaussian, Inc.),
 the Gaussian 88(TM) system (copyright 1988, Gaussian, Inc.),
 the Gaussian 86(TM) system (copyright 1986, Carnegie Mellon
 University), and the Gaussian 82(TM) system (copyright 1983,
 Carnegie Mellon University). Gaussian is a federally registered
 trademark of Gaussian, Inc.
  
 This software contains proprietary and confidential information,
 including trade secrets, belonging to Gaussian, Inc.
  
 This software is provided under written license and may be
 used, copied, transmitted, or stored only in accord with that
 written license.
  
 The following legend is applicable only to US Government
 contracts under FAR:
  
                    RESTRICTED RIGHTS LEGEND
  
 Use, reproduction and disclosure by the US Government is
 subject to restrictions as set forth in subparagraphs (a)
 and (c) of the Commercial Computer Software - Restricted
 Rights clause in FAR 52.227-19.
  
 Gaussian, Inc.
 340 Quinnipiac St., Bldg. 40, Wallingford CT 06492
  
  
 ---------------------------------------------------------------
 Warning -- This program may not be used in any manner that
 competes with the business of Gaussian, Inc. or will provide
 assistance to any competitor of Gaussian, Inc.  The licensee
 of this program is prohibited from giving any competitor of
 Gaussian, Inc. access to this program.  By using this program,
 the user acknowledges that Gaussian, Inc. is engaged in the
 business of creating and licensing software in the field of
 computational chemistry and represents and warrants to the
 licensee that it is not a competitor of Gaussian, Inc. and that
 it will not use this program in any manner prohibited above.
 ---------------------------------------------------------------
  

 Cite this work as:
 Gaussian 16, Revision A.03,
 M. J. Frisch, G. W. Trucks, H. B. Schlegel, G. E. Scuseria, 
 M. A. Robb, J. R. Cheeseman, G. Scalmani, V. Barone, 
 G. A. Petersson, H. Nakatsuji, X. Li, M. Caricato, A. V. Marenich, 
 J. Bloino, B. G. Janesko, R. Gomperts, B. Mennucci, H. P. Hratchian, 
 J. V. Ortiz, A. F. Izmaylov, J. L. Sonnenberg, D. Williams-Young, 
 F. Ding, F. Lipparini, F. Egidi, J. Goings, B. Peng, A. Petrone, 
 T. Henderson, D. Ranasinghe, V. G. Zakrzewski, J. Gao, N. Rega, 
 G. Zheng, W. Liang, M. Hada, M. Ehara, K. Toyota, R. Fukuda, 
 J. Hasegawa, M. Ishida, T. Nakajima, Y. Honda, O. Kitao, H. Nakai, 
 T. Vreven, K. Throssell, J. A. Montgomery, Jr., J. E. Peralta, 
 F. Ogliaro, M. J. Bearpark, J. J. Heyd, E. N. Brothers, K. N. Kudin, 
 V. N. Staroverov, T. A. Keith, R. Kobayashi, J. Normand, 
 K. Raghavachari, A. P. Rendell, J. C. Burant, S. S. Iyengar, 
 J. Tomasi, M. Cossi, J. M. Millam, M. Klene, C. Adamo, R. Cammi, 
 J. W. Ochterski, R. L. Martin, K. Morokuma, O. Farkas, 
 J. B. Foresman, and D. J. Fox, Gaussian, Inc., Wallingford CT, 2016.
 
 ******************************************
 Gaussian 16:  ES64L-G16RevA.03 25-Dec-2016
                15-Feb-2021 
 ******************************************
 %nprocshared=16
 Will use up to   16 processors via shared memory.
 %mem=48GB
 ----------------------------------------------------------------------
 # wB97XD def2tzvp, opt=(ts, noeigen, calcfc, maxcycles=70, maxstep=1),
  freq=noraman, scrf=(iefpcm, solvent=water)
 ----------------------------------------------------------------------
 1/5=1,6=70,8=1,10=4,11=1,18=20,26=3,38=1/1,3;
 2/9=110,12=2,17=6,18=5,40=1/2;
 3/5=44,7=101,11=2,25=1,30=1,70=2201,71=2,72=1,74=-58,140=1/1,2,3;
 4//1;
 5/5=2,38=5,53=1/2;
 8/6=4,10=90,11=11/1;
 11/6=1,8=1,9=11,15=111,16=1/1,2,10;
 10/6=1,13=1/2;
 6/7=2,8=2,9=2,10=2,28=1/1;
 7/10=1,18=20,25=1/1,2,3,16;
 1/5=1,6=70,8=1,10=4,11=1,18=20,26=3/3(2);
 2/9=110/2;
 99//99;
 2/9=110/2;
 3/5=44,7=101,11=2,25=1,30=1,70=2205,71=1,72=1,74=-58/1,2,3;
 4/5=5,16=3,69=1/1;
 5/5=2,38=5,53=1/2;
 7//1,2,3,16;
 1/5=1,6=70,8=1,11=1,18=20,26=3/3(-5);
 2/9=110/2;
 6/7=2,8=2,9=2,10=2,19=2,28=1/1;
 99/9=1/99;
 ------------------------
 0_iteration/TS-534-0.out
 ------------------------
 Symbolic Z-matrix:
 Charge =  0 Multiplicity = 1
 C                     0.06624   0.74926   1.0774 
 C                     1.26851   1.08281   0.27711 
 O                     1.37534   2.18992  -0.26777 
 C                    -1.02132   0.07373   0.59209 
 C                    -2.27774   2.3203   -0.41182 
 H                    -2.40884   2.99178  -1.25974 
 H                    -3.225     2.21755   0.11295 
 H                    -1.53138   2.74074   0.2637 
 N                    -1.80795   1.00412  -0.83317 
 H                    -2.53487   0.47789  -1.30662 
 H                    -1.03132   1.10023  -1.47817 
 C                    -2.22157  -0.13763   1.47818 
 H                    -2.42881   0.77841   2.03301 
 H                    -3.11029  -0.41464   0.91255 
 H                    -2.01088  -0.93172   2.19369 
 Br                   -0.67601  -1.56832  -0.48604 
 H                    -0.16375   1.48402   1.84256 
 N                     2.2582    0.1635    0.15151 
 C                     2.39316  -1.01014   0.98609 
 C                     3.39172   0.44628  -0.70261 
 H                     1.54953  -1.07209   1.66663 
 H                     2.42788  -1.91605   0.37665 
 H                     3.32025  -0.94754   1.56449 
 H                     3.097     1.13203  -1.49176 
 H                     4.21546   0.89624  -0.13883 
 H                     3.74669  -0.48591  -1.14448 
 
 Add virtual bond connecting atoms N9         and C4         Dist= 3.54D+00.

 GradGradGradGradGradGradGradGradGradGradGradGradGradGradGradGradGradGrad
 Berny optimization.
 Initialization pass.
                           ----------------------------
                           !    Initial Parameters    !
                           ! (Angstroms and Degrees)  !
 --------------------------                            --------------------------
 ! Name  Definition              Value          Derivative Info.                !
 --------------------------------------------------------------------------------
 ! R1    R(1,2)                  1.4823         calculate D2E/DX2 analytically  !
 ! R2    R(1,4)                  1.3692         calculate D2E/DX2 analytically  !
 ! R3    R(1,17)                 1.0855         calculate D2E/DX2 analytically  !
 ! R4    R(2,3)                  1.2385         calculate D2E/DX2 analytically  !
 ! R5    R(2,18)                 1.3566         calculate D2E/DX2 analytically  !
 ! R6    R(4,9)                  1.875          calculate D2E/DX2 analytically  !
 ! R7    R(4,12)                 1.5068         calculate D2E/DX2 analytically  !
 ! R8    R(4,16)                 1.9945         calculate D2E/DX2 analytically  !
 ! R9    R(5,6)                  1.0895         calculate D2E/DX2 analytically  !
 ! R10   R(5,7)                  1.0878         calculate D2E/DX2 analytically  !
 ! R11   R(5,8)                  1.0909         calculate D2E/DX2 analytically  !
 ! R12   R(5,9)                  1.4596         calculate D2E/DX2 analytically  !
 ! R13   R(9,10)                 1.0146         calculate D2E/DX2 analytically  !
 ! R14   R(9,11)                 1.0141         calculate D2E/DX2 analytically  !
 ! R15   R(12,13)                1.0908         calculate D2E/DX2 analytically  !
 ! R16   R(12,14)                1.0893         calculate D2E/DX2 analytically  !
 ! R17   R(12,15)                1.0895         calculate D2E/DX2 analytically  !
 ! R18   R(18,19)                1.4464         calculate D2E/DX2 analytically  !
 ! R19   R(18,20)                1.4472         calculate D2E/DX2 analytically  !
 ! R20   R(19,21)                1.0857         calculate D2E/DX2 analytically  !
 ! R21   R(19,22)                1.0924         calculate D2E/DX2 analytically  !
 ! R22   R(19,23)                1.0945         calculate D2E/DX2 analytically  !
 ! R23   R(20,24)                1.0862         calculate D2E/DX2 analytically  !
 ! R24   R(20,25)                1.0949         calculate D2E/DX2 analytically  !
 ! R25   R(20,26)                1.091          calculate D2E/DX2 analytically  !
 ! A1    A(2,1,4)              124.327          calculate D2E/DX2 analytically  !
 ! A2    A(2,1,17)             113.5856         calculate D2E/DX2 analytically  !
 ! A3    A(4,1,17)             114.5529         calculate D2E/DX2 analytically  !
 ! A4    A(1,2,3)              120.5723         calculate D2E/DX2 analytically  !
 ! A5    A(1,2,18)             119.289          calculate D2E/DX2 analytically  !
 ! A6    A(3,2,18)             120.1379         calculate D2E/DX2 analytically  !
 ! A7    A(1,4,9)              110.9681         calculate D2E/DX2 analytically  !
 ! A8    A(1,4,12)             119.5699         calculate D2E/DX2 analytically  !
 ! A9    A(1,4,16)             117.4053         calculate D2E/DX2 analytically  !
 ! A10   A(9,4,12)             100.511          calculate D2E/DX2 analytically  !
 ! A11   A(9,4,16)              94.0291         calculate D2E/DX2 analytically  !
 ! A12   A(12,4,16)            109.8956         calculate D2E/DX2 analytically  !
 ! A13   A(6,5,7)              109.201          calculate D2E/DX2 analytically  !
 ! A14   A(6,5,8)              109.0688         calculate D2E/DX2 analytically  !
 ! A15   A(6,5,9)              111.7037         calculate D2E/DX2 analytically  !
 ! A16   A(7,5,8)              109.4784         calculate D2E/DX2 analytically  !
 ! A17   A(7,5,9)              109.5338         calculate D2E/DX2 analytically  !
 ! A18   A(8,5,9)              107.8222         calculate D2E/DX2 analytically  !
 ! A19   A(4,9,5)              111.2865         calculate D2E/DX2 analytically  !
 ! A20   A(4,9,10)             113.4473         calculate D2E/DX2 analytically  !
 ! A21   A(4,9,11)             102.0755         calculate D2E/DX2 analytically  !
 ! A22   A(5,9,10)             111.8251         calculate D2E/DX2 analytically  !
 ! A23   A(5,9,11)             110.1588         calculate D2E/DX2 analytically  !
 ! A24   A(10,9,11)            107.5197         calculate D2E/DX2 analytically  !
 ! A25   A(4,12,13)            109.4294         calculate D2E/DX2 analytically  !
 ! A26   A(4,12,14)            112.3466         calculate D2E/DX2 analytically  !
 ! A27   A(4,12,15)            109.5366         calculate D2E/DX2 analytically  !
 ! A28   A(13,12,14)           108.8247         calculate D2E/DX2 analytically  !
 ! A29   A(13,12,15)           108.3478         calculate D2E/DX2 analytically  !
 ! A30   A(14,12,15)           108.2679         calculate D2E/DX2 analytically  !
 ! A31   A(2,18,19)            124.3674         calculate D2E/DX2 analytically  !
 ! A32   A(2,18,20)            119.5801         calculate D2E/DX2 analytically  !
 ! A33   A(19,18,20)           115.2141         calculate D2E/DX2 analytically  !
 ! A34   A(18,19,21)           109.6015         calculate D2E/DX2 analytically  !
 ! A35   A(18,19,22)           110.7295         calculate D2E/DX2 analytically  !
 ! A36   A(18,19,23)           109.727          calculate D2E/DX2 analytically  !
 ! A37   A(21,19,22)           109.0922         calculate D2E/DX2 analytically  !
 ! A38   A(21,19,23)           109.2811         calculate D2E/DX2 analytically  !
 ! A39   A(22,19,23)           108.381          calculate D2E/DX2 analytically  !
 ! A40   A(18,20,24)           109.8539         calculate D2E/DX2 analytically  !
 ! A41   A(18,20,25)           111.4489         calculate D2E/DX2 analytically  !
 ! A42   A(18,20,26)           109.0825         calculate D2E/DX2 analytically  !
 ! A43   A(24,20,25)           108.5884         calculate D2E/DX2 analytically  !
 ! A44   A(24,20,26)           109.479          calculate D2E/DX2 analytically  !
 ! A45   A(25,20,26)           108.3549         calculate D2E/DX2 analytically  !
 ! D1    D(4,1,2,3)             95.3891         calculate D2E/DX2 analytically  !
 ! D2    D(4,1,2,18)           -84.9376         calculate D2E/DX2 analytically  !
 ! D3    D(17,1,2,3)           -52.5146         calculate D2E/DX2 analytically  !
 ! D4    D(17,1,2,18)          127.1587         calculate D2E/DX2 analytically  !
 ! D5    D(2,1,4,9)            -60.1717         calculate D2E/DX2 analytically  !
 ! D6    D(2,1,4,12)          -176.4067         calculate D2E/DX2 analytically  !
 ! D7    D(2,1,4,16)            46.2944         calculate D2E/DX2 analytically  !
 ! D8    D(17,1,4,9)            87.4596         calculate D2E/DX2 analytically  !
 ! D9    D(17,1,4,12)          -28.7754         calculate D2E/DX2 analytically  !
 ! D10   D(17,1,4,16)         -166.0743         calculate D2E/DX2 analytically  !
 ! D11   D(1,2,18,19)          -15.2432         calculate D2E/DX2 analytically  !
 ! D12   D(1,2,18,20)          175.758          calculate D2E/DX2 analytically  !
 ! D13   D(3,2,18,19)          164.4316         calculate D2E/DX2 analytically  !
 ! D14   D(3,2,18,20)           -4.5672         calculate D2E/DX2 analytically  !
 ! D15   D(1,4,9,5)            -61.0267         calculate D2E/DX2 analytically  !
 ! D16   D(1,4,9,10)           171.8244         calculate D2E/DX2 analytically  !
 ! D17   D(1,4,9,11)            56.4622         calculate D2E/DX2 analytically  !
 ! D18   D(12,4,9,5)            66.4619         calculate D2E/DX2 analytically  !
 ! D19   D(12,4,9,10)          -60.687          calculate D2E/DX2 analytically  !
 ! D20   D(12,4,9,11)         -176.0492         calculate D2E/DX2 analytically  !
 ! D21   D(16,4,9,5)           177.5647         calculate D2E/DX2 analytically  !
 ! D22   D(16,4,9,10)           50.4158         calculate D2E/DX2 analytically  !
 ! D23   D(16,4,9,11)          -64.9465         calculate D2E/DX2 analytically  !
 ! D24   D(1,4,12,13)           42.1757         calculate D2E/DX2 analytically  !
 ! D25   D(1,4,12,14)          163.1694         calculate D2E/DX2 analytically  !
 ! D26   D(1,4,12,15)          -76.4671         calculate D2E/DX2 analytically  !
 ! D27   D(9,4,12,13)          -79.4071         calculate D2E/DX2 analytically  !
 ! D28   D(9,4,12,14)           41.5866         calculate D2E/DX2 analytically  !
 ! D29   D(9,4,12,15)          161.9502         calculate D2E/DX2 analytically  !
 ! D30   D(16,4,12,13)        -177.637          calculate D2E/DX2 analytically  !
 ! D31   D(16,4,12,14)         -56.6433         calculate D2E/DX2 analytically  !
 ! D32   D(16,4,12,15)          63.7203         calculate D2E/DX2 analytically  !
 ! D33   D(6,5,9,4)            160.019          calculate D2E/DX2 analytically  !
 ! D34   D(6,5,9,10)           -71.9533         calculate D2E/DX2 analytically  !
 ! D35   D(6,5,9,11)            47.549          calculate D2E/DX2 analytically  !
 ! D36   D(7,5,9,4)            -78.8628         calculate D2E/DX2 analytically  !
 ! D37   D(7,5,9,10)            49.1649         calculate D2E/DX2 analytically  !
 ! D38   D(7,5,9,11)           168.6673         calculate D2E/DX2 analytically  !
 ! D39   D(8,5,9,4)             40.1963         calculate D2E/DX2 analytically  !
 ! D40   D(8,5,9,10)           168.224          calculate D2E/DX2 analytically  !
 ! D41   D(8,5,9,11)           -72.2737         calculate D2E/DX2 analytically  !
 ! D42   D(2,18,19,21)           4.0779         calculate D2E/DX2 analytically  !
 ! D43   D(2,18,19,22)         124.4769         calculate D2E/DX2 analytically  !
 ! D44   D(2,18,19,23)        -115.9264         calculate D2E/DX2 analytically  !
 ! D45   D(20,18,19,21)        173.508          calculate D2E/DX2 analytically  !
 ! D46   D(20,18,19,22)        -66.093          calculate D2E/DX2 analytically  !
 ! D47   D(20,18,19,23)         53.5036         calculate D2E/DX2 analytically  !
 ! D48   D(2,18,20,24)         -27.4102         calculate D2E/DX2 analytically  !
 ! D49   D(2,18,20,25)          92.9872         calculate D2E/DX2 analytically  !
 ! D50   D(2,18,20,26)        -147.4143         calculate D2E/DX2 analytically  !
 ! D51   D(19,18,20,24)        162.6164         calculate D2E/DX2 analytically  !
 ! D52   D(19,18,20,25)        -76.9862         calculate D2E/DX2 analytically  !
 ! D53   D(19,18,20,26)         42.6124         calculate D2E/DX2 analytically  !
 --------------------------------------------------------------------------------
 Trust Radius=1.00D-02 FncErr=1.00D-07 GrdErr=1.00D-06 EigMax=2.50D+02 EigMin=1.00D-04
 Number of steps in this run=     70 maximum allowed number of steps=    156.
 Search for a saddle point of order  1.
 GradGradGradGradGradGradGradGradGradGradGradGradGradGradGradGradGradGrad

                          Input orientation:                          
 ---------------------------------------------------------------------
 Center     Atomic      Atomic             Coordinates (Angstroms)
 Number     Number       Type             X           Y           Z
 ---------------------------------------------------------------------
      1          6           0        0.066240    0.749260    1.077400
      2          6           0        1.268510    1.082810    0.277110
      3          8           0        1.375340    2.189920   -0.267770
      4          6           0       -1.021320    0.073730    0.592090
      5          6           0       -2.277740    2.320300   -0.411820
      6          1           0       -2.408840    2.991780   -1.259740
      7          1           0       -3.225000    2.217550    0.112950
      8          1           0       -1.531380    2.740740    0.263700
      9          7           0       -1.807950    1.004120   -0.833170
     10          1           0       -2.534870    0.477890   -1.306620
     11          1           0       -1.031320    1.100230   -1.478170
     12          6           0       -2.221570   -0.137630    1.478180
     13          1           0       -2.428810    0.778410    2.033010
     14          1           0       -3.110290   -0.414640    0.912550
     15          1           0       -2.010880   -0.931720    2.193690
     16         35           0       -0.676010   -1.568320   -0.486040
     17          1           0       -0.163750    1.484020    1.842560
     18          7           0        2.258200    0.163500    0.151510
     19          6           0        2.393160   -1.010140    0.986090
     20          6           0        3.391720    0.446280   -0.702610
     21          1           0        1.549530   -1.072090    1.666630
     22          1           0        2.427880   -1.916050    0.376650
     23          1           0        3.320250   -0.947540    1.564490
     24          1           0        3.097000    1.132030   -1.491760
     25          1           0        4.215460    0.896240   -0.138830
     26          1           0        3.746690   -0.485910   -1.144480
 ---------------------------------------------------------------------
                    Distance matrix (angstroms):
                    1          2          3          4          5
     1  C    0.000000
     2  C    1.482286   0.000000
     3  O    2.366163   1.238547   0.000000
     4  C    1.369180   2.522058   3.310830   0.000000
     5  C    3.190640   3.818625   3.658243   2.762880   0.000000
     6  H    4.076413   4.419160   3.993370   3.724178   1.089514
     7  H    3.730724   4.637479   4.616150   3.111550   1.087770
     8  H    2.679644   3.253966   3.005808   2.735131   1.090940
     9  N    2.688460   3.271623   3.443709   1.875041   1.459647
    10  H    3.538780   4.164112   4.393176   2.461560   2.064281
    11  H    2.803347   2.893187   2.905943   2.310796   2.044318
    12  C    2.486217   3.887506   4.626402   1.506794   3.101076
    13  H    2.671950   4.104390   4.664494   2.133976   2.894381
    14  H    3.387061   4.671191   5.319564   2.169100   3.150713
    15  H    2.895898   4.299536   5.222060   2.134310   4.175587
    16  Br   2.892483   3.375211   4.287196   1.994475   4.206235
    17  H    1.085466   2.159392   2.705658   2.070753   3.201648
    18  N    2.450526   1.356611   2.249803   3.310200   5.054095
    19  C    2.918627   2.479502   3.584481   3.603982   5.904514
    20  C    3.784052   2.423436   2.700954   4.614105   5.978234
    21  H    2.421705   2.579405   3.796440   3.012774   5.520531
    22  H    3.629362   3.216708   4.287436   3.987809   6.380533
    23  H    3.702022   3.160586   4.121105   4.564842   6.776583
    24  H    3.991566   2.544543   2.362498   4.735292   5.609464
    25  H    4.326297   2.982001   3.123542   5.351134   6.653128
    26  H    4.473042   3.259322   3.681302   5.105173   6.686207
                    6          7          8          9         10
     6  H    0.000000
     7  H    1.774775   0.000000
     8  H    1.775902   1.778989   0.000000
     9  N    2.119864   2.091790   2.072550   0.000000
    10  H    2.517484   2.349016   2.931448   1.014636   0.000000
    11  H    2.350156   2.931262   2.444472   1.014109   1.636276
    12  C    4.162269   2.901310   3.199428   2.610941   2.869169
    13  H    3.967570   2.528176   2.790444   2.941326   3.354801
    14  H    4.100558   2.753351   3.587532   2.599328   2.460169
    15  H    5.241985   3.965031   4.176331   3.598686   3.809690
    16  Br   4.939213   4.603146   4.456654   2.831825   2.883693
    17  H    4.115584   3.591778   2.437736   3.176984   4.068396
    18  N    5.636671   5.855433   4.584285   4.267296   5.019811
    19  C    6.642162   6.537896   5.476583   5.001627   5.635267
    20  C    6.358967   6.898081   5.516812   5.231137   5.957373
    21  H    6.383367   6.002649   5.098813   4.672507   5.284409
    22  H    7.082261   7.007941   6.113443   5.285198   5.761357
    23  H    7.504465   7.413843   6.231675   5.988003   6.675144
    24  H    5.816079   6.612196   5.204949   4.950620   5.672754
    25  H    7.037690   7.561065   6.048998   6.064257   6.863360
    26  H    7.070938   7.582499   6.344467   5.759438   6.357137
                   11         12         13         14         15
    11  H    0.000000
    12  C    3.418918   0.000000
    13  H    3.792747   1.090832   0.000000
    14  H    3.511764   1.089264   1.772911   0.000000
    15  H    4.309398   1.089460   1.767775   1.765614   0.000000
    16  Br   2.869099   2.879894   3.863297   3.035251   3.060734
    17  H    3.453581   2.645212   2.380053   3.626558   3.061206
    18  N    3.788702   4.681781   5.087850   5.452899   4.857474
    19  C    4.717341   4.722199   5.248461   5.536063   4.567277
    20  C    4.537888   6.050274   6.439914   6.754706   6.282955
    21  H    4.611890   3.889720   4.402928   4.766005   3.601946
    22  H    4.950189   5.098385   5.795781   5.763050   4.896236
    23  H    5.690984   5.601355   6.020806   6.485434   5.368155
    24  H    4.128465   6.222521   6.563812   6.833984   6.628125
    25  H    5.418869   6.717065   6.991216   7.516011   6.895607
    26  H    5.045450   6.528382   7.059161   7.159234   6.670213
                   16         17         18         19         20
    16  Br   0.000000
    17  H    3.873186   0.000000
    18  N    3.466303   3.235624   0.000000
    19  C    3.449425   3.673168   1.446433   0.000000
    20  C    4.544441   4.494014   1.447188   2.443356   0.000000
    21  H    3.135803   3.082203   2.079539   1.085672   3.363393
    22  H    3.240260   4.519504   2.098573   1.092381   2.770269
    23  H    4.534329   4.257706   2.087791   1.094514   2.662252
    24  H    4.747522   4.676973   2.083740   3.350227   1.086219
    25  H    5.488268   4.842404   2.109993   2.867143   1.094924
    26  H    4.600590   5.300431   2.077721   2.578020   1.090977
                   21         22         23         24         25
    21  H    0.000000
    22  H    1.774208   0.000000
    23  H    1.778031   1.773499   0.000000
    24  H    4.150691   3.637234   3.703393   0.000000
    25  H    3.773750   3.371963   2.665000   1.771149   0.000000
    26  H    3.615724   2.469493   2.780912   1.777760   1.772404
                   26
    26  H    0.000000
 Stoichiometry    C7H15BrN2O
 Framework group  C1[X(C7H15BrN2O)]
 Deg. of freedom    72
 Full point group                 C1      NOp   1
 Largest Abelian subgroup         C1      NOp   1
 Largest concise Abelian subgroup C1      NOp   1
                         Standard orientation:                         
 ---------------------------------------------------------------------
 Center     Atomic      Atomic             Coordinates (Angstroms)
 Number     Number       Type             X           Y           Z
 ---------------------------------------------------------------------
      1          6           0        0.066242    0.749259    1.077399
      2          6           0        1.268512    1.082809    0.277109
      3          8           0        1.375342    2.189919   -0.267771
      4          6           0       -1.021318    0.073729    0.592089
      5          6           0       -2.277738    2.320300   -0.411821
      6          1           0       -2.408838    2.991780   -1.259741
      7          1           0       -3.224998    2.217550    0.112949
      8          1           0       -1.531378    2.740739    0.263699
      9          7           0       -1.807948    1.004119   -0.833171
     10          1           0       -2.534868    0.477890   -1.306621
     11          1           0       -1.031318    1.100229   -1.478171
     12          6           0       -2.221568   -0.137630    1.478179
     13          1           0       -2.428808    0.778410    2.033009
     14          1           0       -3.110288   -0.414640    0.912549
     15          1           0       -2.010878   -0.931720    2.193689
     16         35           0       -0.676008   -1.568321   -0.486041
     17          1           0       -0.163748    1.484019    1.842559
     18          7           0        2.258202    0.163499    0.151509
     19          6           0        2.393162   -1.010141    0.986089
     20          6           0        3.391722    0.446278   -0.702611
     21          1           0        1.549532   -1.072091    1.666629
     22          1           0        2.427881   -1.916051    0.376649
     23          1           0        3.320252   -0.947542    1.564489
     24          1           0        3.097002    1.132029   -1.491761
     25          1           0        4.215462    0.896238   -0.138831
     26          1           0        3.746692   -0.485912   -1.144481
 ---------------------------------------------------------------------
 Rotational constants (GHZ):           0.9427750           0.6505150           0.4723407
 Standard basis: def2TZVP (5D, 7F)
 There are   505 symmetry adapted cartesian basis functions of A   symmetry.
 There are   448 symmetry adapted basis functions of A   symmetry.
   448 basis functions,   744 primitive gaussians,   505 cartesian basis functions
    57 alpha electrons       57 beta electrons
       nuclear repulsion energy       998.7632650822 Hartrees.
 NAtoms=   26 NActive=   26 NUniq=   26 SFac= 1.00D+00 NAtFMM=   60 NAOKFM=F Big=F
 Integral buffers will be    131072 words long.
 Raffenetti 2 integral format.
 Two-electron integral symmetry is turned on.
 Nuclear repulsion after empirical dispersion term =      998.7434405153 Hartrees.
 Force inversion solution in PCM.
 ------------------------------------------------------------------------------
 Polarizable Continuum Model (PCM)
 =================================
 Model                : PCM.
 Atomic radii         : UFF (Universal Force Field).
 Polarization charges : Total charges.
 Charge compensation  : None.
 Solution method      : Matrix inversion.
 Cavity type          : Scaled VdW (van der Waals Surface) (Alpha=1.100).
 Cavity algorithm     : GePol (No added spheres)
                        Default sphere list used, NSphG=   26.
                        Lebedev-Laikov grids with approx.  5.0 points / Ang**2.
                        Smoothing algorithm: York/Karplus (Gamma=1.0000).
                        Polarization charges: spherical gaussians, with
                                              point-specific exponents (IZeta= 3).
                        Self-potential: point-specific (ISelfS= 7).
                        Self-field    : sphere-specific E.n sum rule (ISelfD= 2).
 1st derivatives      : Analytical E(r).r(x)/FMM algorithm (CHGder, D1EAlg=3).
                        Cavity 1st derivative terms included.
 2nd derivatives      : Analytical E(r).r(xy)/FMM algorithm (CHGder, D2EAlg=3).
                        Cavity 2nd derivative terms included.
 Solvent              : Water, Eps=  78.355300 Eps(inf)=   1.777849
 ------------------------------------------------------------------------------
 One-electron integrals computed using PRISM.
   1 Symmetry operations used in ECPInt.
 ECPInt:  NShTT=   17391 NPrTT=   54616 LenC2=   16551 LenP2D=   39101.
 LDataN:  DoStor=T MaxTD1= 6 Len=  172
 NBasis=   448 RedAO= T EigKep=  8.06D-05  NBF=   448
 NBsUse=   448 1.00D-06 EigRej= -1.00D+00 NBFU=   448
 ExpMin= 9.52D-02 ExpMax= 5.65D+05 ExpMxC= 5.46D+03 IAcc=3 IRadAn=         5 AccDes= 0.00D+00
 Harris functional with IExCor= 4639 and IRadAn=       5 diagonalized for initial guess.
 HarFok:  IExCor= 4639 AccDes= 0.00D+00 IRadAn=         5 IDoV= 1 UseB2=F ITyADJ=14
 ICtDFT=  3500011 ScaDFX=  1.000000  1.000000  1.000000  1.000000
 FoFCou: FMM=F IPFlag=           0 FMFlag=      100000 FMFlg1=           0
         NFxFlg=           0 DoJE=T BraDBF=F KetDBF=T FulRan=T
         wScrn=  0.000000 ICntrl=       500 IOpCl=  0 I1Cent=   200000004 NGrid=           0
         NMat0=    1 NMatS0=      1 NMatT0=    0 NMatD0=    1 NMtDS0=    0 NMtDT0=    0
 Petite list used in FoFCou.
 Requested convergence on RMS density matrix=1.00D-08 within 128 cycles.
 Requested convergence on MAX density matrix=1.00D-06.
 Requested convergence on             energy=1.00D-06.
 No special actions if energy rises.
 Inv3:  Mode=1 IEnd=    10967232.
 Iteration    1 A*A^-1 deviation from unit magnitude is 4.00D-15 for   1912.
 Iteration    1 A*A^-1 deviation from orthogonality  is 2.07D-15 for   1901    858.
 Iteration    1 A^-1*A deviation from unit magnitude is 4.00D-15 for   1912.
 Iteration    1 A^-1*A deviation from orthogonality  is 1.71D-15 for   1510    229.
 Error on total polarization charges =  0.01431
 SCF Done:  E(RwB97XD) =  -3034.70333939     A.U. after   15 cycles
            NFock= 15  Conv=0.48D-08     -V/T= 2.0019
 DoSCS=F DFT=T ScalE2(SS,OS)=  1.000000  1.000000
 Range of M.O.s used for correlation:     1   448
 NBasis=   448 NAE=    57 NBE=    57 NFC=     0 NFV=     0
 NROrb=    448 NOA=    57 NOB=    57 NVA=   391 NVB=   391

 **** Warning!!: The largest alpha MO coefficient is  0.24112810D+02

   1 Symmetry operations used in ECPInt.
 ECPInt:  NShTT=   17391 NPrTT=   54616 LenC2=   16551 LenP2D=   39101.
 LDataN:  DoStor=T MaxTD1= 7 Len=  274
 Symmetrizing basis deriv contribution to polar:
 IMax=3 JMax=2 DiffMx= 0.00D+00
 G2DrvN: will do    27 centers at a time, making    1 passes.
 Calling FoFCou, ICntrl=  3107 FMM=F I1Cent=   0 AccDes= 0.00D+00.
 NEqPCM:  Using equilibrium solvation (IEInf=0, Eps=  78.3553, EpsInf=   1.7778)
 G2PCM: DoFxE=T DoFxN=T DoGrad=T DoDP/DQ/DG/TGxP=FFFF NFrqRd=   0 IEInf=0 SqF1=F DoCFld=F IF1Alg=4.
 End of G2Drv F.D. properties file   721 does not exist.
 End of G2Drv F.D. properties file   722 does not exist.
 End of G2Drv F.D. properties file   788 does not exist.
          IDoAtm=11111111111111111111111111
 NEqPCM:  Using equilibrium solvation (IEInf=0, Eps=  78.3553, EpsInf=   1.7778)
          Differentiating once with respect to nuclear coordinates.
 CalDSu exits because no D1Ps are significant.
          There are    81 degrees of freedom in the 1st order CPHF.  IDoFFX=6 NUNeed=     0.
     75 vectors produced by pass  0 Test12= 2.75D-14 1.23D-09 XBig12= 1.31D-01 9.11D-02.
 AX will form    75 AO Fock derivatives at one time.
     75 vectors produced by pass  1 Test12= 2.75D-14 1.23D-09 XBig12= 1.81D-02 3.07D-02.
     75 vectors produced by pass  2 Test12= 2.75D-14 1.23D-09 XBig12= 6.96D-04 3.96D-03.
     75 vectors produced by pass  3 Test12= 2.75D-14 1.23D-09 XBig12= 9.89D-06 4.66D-04.
     75 vectors produced by pass  4 Test12= 2.75D-14 1.23D-09 XBig12= 8.86D-08 3.92D-05.
     75 vectors produced by pass  5 Test12= 2.75D-14 1.23D-09 XBig12= 6.60D-10 3.44D-06.
     75 vectors produced by pass  6 Test12= 2.75D-14 1.23D-09 XBig12= 4.04D-12 1.85D-07.
     28 vectors produced by pass  7 Test12= 2.75D-14 1.23D-09 XBig12= 2.39D-14 1.28D-08.
      5 vectors produced by pass  8 Test12= 2.75D-14 1.23D-09 XBig12= 7.61D-16 3.77D-09.
      2 vectors produced by pass  9 Test12= 2.75D-14 1.23D-09 XBig12= 6.08D-16 1.68D-09.
 InvSVY:  IOpt=1 It=  1 EMax= 3.33D-16
 Solved reduced A of dimension   560 with    81 vectors.
 End of Minotr F.D. properties file   721 does not exist.
 End of Minotr F.D. properties file   722 does not exist.
 End of Minotr F.D. properties file   788 does not exist.

 **********************************************************************

            Population analysis using the SCF density.

 **********************************************************************

 Orbital symmetries:
       Occupied  (A) (A) (A) (A) (A) (A) (A) (A) (A) (A) (A) (A)
                 (A) (A) (A) (A) (A) (A) (A) (A) (A) (A) (A) (A)
                 (A) (A) (A) (A) (A) (A) (A) (A) (A) (A) (A) (A)
                 (A) (A) (A) (A) (A) (A) (A) (A) (A) (A) (A) (A)
                 (A) (A) (A) (A) (A) (A) (A) (A) (A)
       Virtual   (A) (A) (A) (A) (A) (A) (A) (A) (A) (A) (A) (A)
                 (A) (A) (A) (A) (A) (A) (A) (A) (A) (A) (A) (A)
                 (A) (A) (A) (A) (A) (A) (A) (A) (A) (A) (A) (A)
                 (A) (A) (A) (A) (A) (A) (A) (A) (A) (A) (A) (A)
                 (A) (A) (A) (A) (A) (A) (A) (A) (A) (A) (A) (A)
                 (A) (A) (A) (A) (A) (A) (A) (A) (A) (A) (A) (A)
                 (A) (A) (A) (A) (A) (A) (A) (A) (A) (A) (A) (A)
                 (A) (A) (A) (A) (A) (A) (A) (A) (A) (A) (A) (A)
                 (A) (A) (A) (A) (A) (A) (A) (A) (A) (A) (A) (A)
                 (A) (A) (A) (A) (A) (A) (A) (A) (A) (A) (A) (A)
                 (A) (A) (A) (A) (A) (A) (A) (A) (A) (A) (A) (A)
                 (A) (A) (A) (A) (A) (A) (A) (A) (A) (A) (A) (A)
                 (A) (A) (A) (A) (A) (A) (A) (A) (A) (A) (A) (A)
                 (A) (A) (A) (A) (A) (A) (A) (A) (A) (A) (A) (A)
                 (A) (A) (A) (A) (A) (A) (A) (A) (A) (A) (A) (A)
                 (A) (A) (A) (A) (A) (A) (A) (A) (A) (A) (A) (A)
                 (A) (A) (A) (A) (A) (A) (A) (A) (A) (A) (A) (A)
                 (A) (A) (A) (A) (A) (A) (A) (A) (A) (A) (A) (A)
                 (A) (A) (A) (A) (A) (A) (A) (A) (A) (A) (A) (A)
                 (A) (A) (A) (A) (A) (A) (A) (A) (A) (A) (A) (A)
                 (A) (A) (A) (A) (A) (A) (A) (A) (A) (A) (A) (A)
                 (A) (A) (A) (A) (A) (A) (A) (A) (A) (A) (A) (A)
                 (A) (A) (A) (A) (A) (A) (A) (A) (A) (A) (A) (A)
                 (A) (A) (A) (A) (A) (A) (A) (A) (A) (A) (A) (A)
                 (A) (A) (A) (A) (A) (A) (A) (A) (A) (A) (A) (A)
                 (A) (A) (A) (A) (A) (A) (A) (A) (A) (A) (A) (A)
                 (A) (A) (A) (A) (A) (A) (A) (A) (A) (A) (A) (A)
                 (A) (A) (A) (A) (A) (A) (A) (A) (A) (A) (A) (A)
                 (A) (A) (A) (A) (A) (A) (A) (A) (A) (A) (A) (A)
                 (A) (A) (A) (A) (A) (A) (A) (A) (A) (A) (A) (A)
                 (A) (A) (A) (A) (A) (A) (A) (A) (A) (A) (A) (A)
                 (A) (A) (A) (A) (A) (A) (A) (A) (A) (A) (A) (A)
                 (A) (A) (A) (A) (A) (A) (A)
 The electronic state is 1-A.
 Alpha  occ. eigenvalues -- -483.11742 -62.66607 -56.45695 -56.45379 -56.45370
 Alpha  occ. eigenvalues --  -19.20120 -14.47842 -14.45690 -10.38148 -10.37505
 Alpha  occ. eigenvalues --  -10.31259 -10.30236 -10.30211 -10.28493 -10.24055
 Alpha  occ. eigenvalues --   -8.80715  -6.62781  -6.61784  -6.61752  -2.73175
 Alpha  occ. eigenvalues --   -2.72900  -2.72875  -2.72067  -2.72067  -1.12769
 Alpha  occ. eigenvalues --   -1.03961  -1.02805  -0.92476  -0.84150  -0.82424
 Alpha  occ. eigenvalues --   -0.80412  -0.78486  -0.77077  -0.66391  -0.62795
 Alpha  occ. eigenvalues --   -0.61825  -0.58234  -0.57398  -0.56406  -0.55507
 Alpha  occ. eigenvalues --   -0.54011  -0.52087  -0.50920  -0.49311  -0.48144
 Alpha  occ. eigenvalues --   -0.47931  -0.47536  -0.46535  -0.45844  -0.45019
 Alpha  occ. eigenvalues --   -0.42842  -0.41935  -0.36754  -0.36300  -0.34329
 Alpha  occ. eigenvalues --   -0.31638  -0.26200
 Alpha virt. eigenvalues --    0.05508   0.08692   0.10011   0.11950   0.12585
 Alpha virt. eigenvalues --    0.14111   0.14659   0.16347   0.16862   0.17092
 Alpha virt. eigenvalues --    0.17827   0.19271   0.19380   0.19837   0.20871
 Alpha virt. eigenvalues --    0.21383   0.21504   0.22685   0.22853   0.23667
 Alpha virt. eigenvalues --    0.24154   0.25159   0.25970   0.26799   0.27082
 Alpha virt. eigenvalues --    0.27822   0.29806   0.30476   0.31945   0.32340
 Alpha virt. eigenvalues --    0.32405   0.33490   0.35156   0.35610   0.36568
 Alpha virt. eigenvalues --    0.37639   0.38122   0.39299   0.40459   0.40701
 Alpha virt. eigenvalues --    0.41036   0.42290   0.43268   0.44403   0.45884
 Alpha virt. eigenvalues --    0.46431   0.47149   0.47932   0.48826   0.49460
 Alpha virt. eigenvalues --    0.49864   0.50554   0.51190   0.51596   0.52775
 Alpha virt. eigenvalues --    0.52862   0.53286   0.53613   0.53990   0.54943
 Alpha virt. eigenvalues --    0.55856   0.56482   0.57004   0.58090   0.58430
 Alpha virt. eigenvalues --    0.58774   0.59739   0.60482   0.61069   0.61310
 Alpha virt. eigenvalues --    0.62274   0.63787   0.64272   0.65157   0.65572
 Alpha virt. eigenvalues --    0.67896   0.68723   0.69302   0.71144   0.72369
 Alpha virt. eigenvalues --    0.72956   0.75825   0.76742   0.79403   0.80031
 Alpha virt. eigenvalues --    0.80883   0.81560   0.82929   0.85874   0.88998
 Alpha virt. eigenvalues --    0.91223   0.92106   0.93007   0.94303   0.95451
 Alpha virt. eigenvalues --    0.96455   0.96869   1.00605   1.01515   1.03487
 Alpha virt. eigenvalues --    1.04158   1.05303   1.06895   1.08622   1.08837
 Alpha virt. eigenvalues --    1.10056   1.11329   1.12489   1.13722   1.14308
 Alpha virt. eigenvalues --    1.15557   1.16952   1.17382   1.18941   1.20790
 Alpha virt. eigenvalues --    1.21266   1.22602   1.25060   1.28872   1.30850
 Alpha virt. eigenvalues --    1.33393   1.34470   1.36339   1.37850   1.39104
 Alpha virt. eigenvalues --    1.41538   1.44573   1.44831   1.47945   1.49628
 Alpha virt. eigenvalues --    1.50897   1.51406   1.52994   1.53785   1.55181
 Alpha virt. eigenvalues --    1.55815   1.56702   1.56894   1.58915   1.60073
 Alpha virt. eigenvalues --    1.60796   1.61780   1.62776   1.63549   1.63888
 Alpha virt. eigenvalues --    1.64398   1.64677   1.65223   1.65568   1.66081
 Alpha virt. eigenvalues --    1.67459   1.68286   1.68345   1.69936   1.70382
 Alpha virt. eigenvalues --    1.70551   1.71945   1.73110   1.74471   1.75633
 Alpha virt. eigenvalues --    1.77302   1.77570   1.78836   1.79602   1.81706
 Alpha virt. eigenvalues --    1.82494   1.83822   1.86278   1.87073   1.87794
 Alpha virt. eigenvalues --    1.88404   1.92198   1.93054   1.95551   1.96546
 Alpha virt. eigenvalues --    1.97435   1.97772   1.98606   1.99990   2.02732
 Alpha virt. eigenvalues --    2.03779   2.04565   2.05691   2.07658   2.08231
 Alpha virt. eigenvalues --    2.10041   2.12686   2.14252   2.14943   2.17474
 Alpha virt. eigenvalues --    2.17934   2.20347   2.21435   2.23153   2.24710
 Alpha virt. eigenvalues --    2.27241   2.28153   2.29371   2.30592   2.34669
 Alpha virt. eigenvalues --    2.36178   2.38302   2.38514   2.39917   2.40754
 Alpha virt. eigenvalues --    2.42845   2.43150   2.43958   2.45044   2.46544
 Alpha virt. eigenvalues --    2.47805   2.49030   2.51069   2.51728   2.52927
 Alpha virt. eigenvalues --    2.54106   2.55139   2.56241   2.57356   2.59202
 Alpha virt. eigenvalues --    2.60713   2.63248   2.64696   2.64952   2.65529
 Alpha virt. eigenvalues --    2.67763   2.68573   2.69857   2.70649   2.71833
 Alpha virt. eigenvalues --    2.72746   2.73579   2.77175   2.77489   2.80535
 Alpha virt. eigenvalues --    2.80831   2.82980   2.83957   2.85153   2.86878
 Alpha virt. eigenvalues --    2.89796   2.91424   2.92610   2.94382   2.95585
 Alpha virt. eigenvalues --    2.97682   3.00162   3.02368   3.05163   3.07869
 Alpha virt. eigenvalues --    3.08764   3.09199   3.11728   3.12907   3.13789
 Alpha virt. eigenvalues --    3.15836   3.17341   3.18604   3.19174   3.20661
 Alpha virt. eigenvalues --    3.21978   3.23393   3.24147   3.26533   3.27063
 Alpha virt. eigenvalues --    3.28860   3.30056   3.30777   3.32304   3.33390
 Alpha virt. eigenvalues --    3.34966   3.36321   3.38084   3.38822   3.38922
 Alpha virt. eigenvalues --    3.41802   3.43448   3.43605   3.44646   3.45050
 Alpha virt. eigenvalues --    3.46267   3.48224   3.50829   3.51605   3.54649
 Alpha virt. eigenvalues --    3.55266   3.56241   3.57743   3.59748   3.60424
 Alpha virt. eigenvalues --    3.62445   3.63116   3.64265   3.65897   3.66595
 Alpha virt. eigenvalues --    3.69334   3.70660   3.73537   3.75025   3.76681
 Alpha virt. eigenvalues --    3.79344   3.80731   3.82454   3.85000   3.86987
 Alpha virt. eigenvalues --    3.91599   3.92917   3.93629   3.96234   4.00735
 Alpha virt. eigenvalues --    4.01077   4.06507   4.08681   4.11652   4.15829
 Alpha virt. eigenvalues --    4.18122   4.19633   4.22429   4.23365   4.25063
 Alpha virt. eigenvalues --    4.26600   4.27140   4.31091   4.31865   4.35264
 Alpha virt. eigenvalues --    4.36142   4.40050   4.42227   4.43194   4.45119
 Alpha virt. eigenvalues --    4.47537   4.49017   4.50520   4.51989   4.54208
 Alpha virt. eigenvalues --    4.54948   4.60546   4.62465   4.66628   4.71319
 Alpha virt. eigenvalues --    4.83233   4.86385   4.89633   4.95510   4.96163
 Alpha virt. eigenvalues --    4.98675   5.01535   5.02902   5.05190   5.10259
 Alpha virt. eigenvalues --    5.12216   5.15114   5.16445   5.18821   5.23290
 Alpha virt. eigenvalues --    5.25300   5.28713   5.30550   5.34724   5.36693
 Alpha virt. eigenvalues --    5.40617   5.41771   5.44697   5.52306   5.60473
 Alpha virt. eigenvalues --    5.62285   5.72679   5.77351   5.80407   5.86488
 Alpha virt. eigenvalues --    5.87973   6.07105   6.22063   6.42210   6.52710
 Alpha virt. eigenvalues --    6.68717   6.79617   6.94611   7.17856   7.20943
 Alpha virt. eigenvalues --    7.78219  22.47988  22.52955  22.54432  22.57418
 Alpha virt. eigenvalues --   22.61370  22.92671  23.51955  32.20473  32.89236
 Alpha virt. eigenvalues --   44.07095
          Condensed to atoms (all electrons):
               1          2          3          4          5          6
     1  C    5.892372   0.306840  -0.121923   0.395439  -0.012274  -0.000825
     2  C    0.306840   4.562533   0.659812  -0.044311  -0.003413   0.000393
     3  O   -0.121923   0.659812   8.118146  -0.017642   0.001227  -0.000264
     4  C    0.395439  -0.044311  -0.017642   5.217802  -0.026539   0.002045
     5  C   -0.012274  -0.003413   0.001227  -0.026539   4.902810   0.410208
     6  H   -0.000825   0.000393  -0.000264   0.002045   0.410208   0.503513
     7  H   -0.002251   0.000390   0.000355  -0.006478   0.413362  -0.018097
     8  H    0.016306  -0.004874   0.005911   0.019373   0.407286  -0.021798
     9  N   -0.062008   0.025210   0.007048  -0.115545   0.240286  -0.020586
    10  H    0.007756  -0.001224  -0.000113   0.008835  -0.022156  -0.002642
    11  H   -0.010502  -0.000652   0.004119  -0.000271  -0.019039  -0.007524
    12  C   -0.073408   0.005310   0.000249   0.236108   0.007474  -0.000019
    13  H   -0.009434  -0.000085  -0.000101  -0.025869   0.001949   0.000184
    14  H    0.017219   0.000098   0.000055  -0.065704  -0.004660   0.000037
    15  H   -0.007314   0.000006   0.000002  -0.032880  -0.000332   0.000023
    16  Br  -0.116053  -0.003327  -0.000587   0.353759   0.006241  -0.000389
    17  H    0.422652  -0.042066   0.003143  -0.035734  -0.003224   0.000058
    18  N   -0.141216   0.380160  -0.145827   0.014053  -0.000421   0.000001
    19  C   -0.048998  -0.051168   0.001200  -0.000355  -0.000055  -0.000001
    20  C    0.008276  -0.071964  -0.006963   0.000021  -0.000031   0.000002
    21  H    0.013121  -0.011247   0.000559  -0.005071   0.000009   0.000001
    22  H    0.001463   0.006009  -0.000113   0.000280   0.000003  -0.000000
    23  H   -0.000415  -0.003327   0.000273   0.000240  -0.000001   0.000000
    24  H    0.002374  -0.012089   0.017284   0.000022   0.000028  -0.000003
    25  H   -0.001536  -0.005234   0.000666  -0.000035  -0.000001   0.000000
    26  H    0.001352   0.012179   0.002395   0.000007   0.000000  -0.000000
               7          8          9         10         11         12
     1  C   -0.002251   0.016306  -0.062008   0.007756  -0.010502  -0.073408
     2  C    0.000390  -0.004874   0.025210  -0.001224  -0.000652   0.005310
     3  O    0.000355   0.005911   0.007048  -0.000113   0.004119   0.000249
     4  C   -0.006478   0.019373  -0.115545   0.008835  -0.000271   0.236108
     5  C    0.413362   0.407286   0.240286  -0.022156  -0.019039   0.007474
     6  H   -0.018097  -0.021798  -0.020586  -0.002642  -0.007524  -0.000019
     7  H    0.507404  -0.021805  -0.032665  -0.006679   0.005474   0.006338
     8  H   -0.021805   0.516588  -0.059208   0.006569  -0.002306  -0.009253
     9  N   -0.032665  -0.059208   6.730265   0.341695   0.351079  -0.011601
    10  H   -0.006679   0.006569   0.341695   0.414087  -0.020613  -0.010443
    11  H    0.005474  -0.002306   0.351079  -0.020613   0.415555   0.007466
    12  C    0.006338  -0.009253  -0.011601  -0.010443   0.007466   5.049687
    13  H   -0.003241   0.000007  -0.006604   0.000236  -0.000314   0.404454
    14  H   -0.000770  -0.000068   0.010075   0.000029   0.000093   0.425859
    15  H    0.000051  -0.000149   0.005690  -0.000069  -0.000207   0.413164
    16  Br   0.000159   0.001304  -0.089794   0.001864   0.001587  -0.064120
    17  H    0.000322   0.001773  -0.001885  -0.000190   0.000008  -0.011131
    18  N    0.000024   0.000659  -0.000586  -0.000040  -0.000975  -0.000389
    19  C    0.000003   0.000056  -0.000814   0.000029   0.000207  -0.000241
    20  C   -0.000001  -0.000017   0.000080  -0.000008  -0.000101   0.000073
    21  H   -0.000003  -0.000023   0.000426  -0.000009  -0.000044  -0.000040
    22  H    0.000000  -0.000001   0.000063  -0.000000   0.000045   0.000091
    23  H   -0.000000  -0.000002   0.000021  -0.000001  -0.000011   0.000001
    24  H   -0.000000  -0.000018  -0.000065   0.000003   0.000187   0.000002
    25  H   -0.000000  -0.000000   0.000004  -0.000000  -0.000017  -0.000002
    26  H   -0.000000  -0.000000  -0.000024   0.000001   0.000029   0.000004
              13         14         15         16         17         18
     1  C   -0.009434   0.017219  -0.007314  -0.116053   0.422652  -0.141216
     2  C   -0.000085   0.000098   0.000006  -0.003327  -0.042066   0.380160
     3  O   -0.000101   0.000055   0.000002  -0.000587   0.003143  -0.145827
     4  C   -0.025869  -0.065704  -0.032880   0.353759  -0.035734   0.014053
     5  C    0.001949  -0.004660  -0.000332   0.006241  -0.003224  -0.000421
     6  H    0.000184   0.000037   0.000023  -0.000389   0.000058   0.000001
     7  H   -0.003241  -0.000770   0.000051   0.000159   0.000322   0.000024
     8  H    0.000007  -0.000068  -0.000149   0.001304   0.001773   0.000659
     9  N   -0.006604   0.010075   0.005690  -0.089794  -0.001885  -0.000586
    10  H    0.000236   0.000029  -0.000069   0.001864  -0.000190  -0.000040
    11  H   -0.000314   0.000093  -0.000207   0.001587   0.000008  -0.000975
    12  C    0.404454   0.425859   0.413164  -0.064120  -0.011131  -0.000389
    13  H    0.519279  -0.024661  -0.015912   0.007230   0.002948  -0.000029
    14  H   -0.024661   0.519081  -0.018415  -0.004205   0.000208   0.000002
    15  H   -0.015912  -0.018415   0.506406  -0.000638  -0.000330   0.000027
    16  Br   0.007230  -0.004205  -0.000638  35.094692   0.006698   0.001346
    17  H    0.002948   0.000208  -0.000330   0.006698   0.515088   0.004266
    18  N   -0.000029   0.000002   0.000027   0.001346   0.004266   6.696793
    19  C    0.000025  -0.000051   0.000052  -0.007098   0.000329   0.272676
    20  C   -0.000001  -0.000001   0.000000   0.002002  -0.000254   0.275112
    21  H    0.000008   0.000016   0.000379  -0.002959   0.000287  -0.032888
    22  H   -0.000002   0.000002  -0.000003   0.000019  -0.000178  -0.053819
    23  H   -0.000002   0.000001   0.000004   0.001106   0.000222  -0.035616
    24  H    0.000001  -0.000000  -0.000000   0.000060  -0.000115  -0.037121
    25  H   -0.000000   0.000000   0.000000  -0.000001   0.000088  -0.039723
    26  H    0.000000  -0.000000  -0.000000   0.000089  -0.000019  -0.045692
              19         20         21         22         23         24
     1  C   -0.048998   0.008276   0.013121   0.001463  -0.000415   0.002374
     2  C   -0.051168  -0.071964  -0.011247   0.006009  -0.003327  -0.012089
     3  O    0.001200  -0.006963   0.000559  -0.000113   0.000273   0.017284
     4  C   -0.000355   0.000021  -0.005071   0.000280   0.000240   0.000022
     5  C   -0.000055  -0.000031   0.000009   0.000003  -0.000001   0.000028
     6  H   -0.000001   0.000002   0.000001  -0.000000   0.000000  -0.000003
     7  H    0.000003  -0.000001  -0.000003   0.000000  -0.000000  -0.000000
     8  H    0.000056  -0.000017  -0.000023  -0.000001  -0.000002  -0.000018
     9  N   -0.000814   0.000080   0.000426   0.000063   0.000021  -0.000065
    10  H    0.000029  -0.000008  -0.000009  -0.000000  -0.000001   0.000003
    11  H    0.000207  -0.000101  -0.000044   0.000045  -0.000011   0.000187
    12  C   -0.000241   0.000073  -0.000040   0.000091   0.000001   0.000002
    13  H    0.000025  -0.000001   0.000008  -0.000002  -0.000002   0.000001
    14  H   -0.000051  -0.000001   0.000016   0.000002   0.000001  -0.000000
    15  H    0.000052   0.000000   0.000379  -0.000003   0.000004  -0.000000
    16  Br  -0.007098   0.002002  -0.002959   0.000019   0.001106   0.000060
    17  H    0.000329  -0.000254   0.000287  -0.000178   0.000222  -0.000115
    18  N    0.272676   0.275112  -0.032888  -0.053819  -0.035616  -0.037121
    19  C    4.936078  -0.054597   0.416532   0.429653   0.394600   0.007546
    20  C   -0.054597   4.903088   0.007407  -0.011388   0.003488   0.401717
    21  H    0.416532   0.007407   0.496935  -0.024918  -0.013858  -0.000384
    22  H    0.429653  -0.011388  -0.024918   0.546708  -0.036888   0.000918
    23  H    0.394600   0.003488  -0.013858  -0.036888   0.557330  -0.000761
    24  H    0.007546   0.401717  -0.000384   0.000918  -0.000761   0.525689
    25  H   -0.005083   0.429529   0.000040  -0.001480   0.005818  -0.030877
    26  H   -0.005055   0.397760   0.000182   0.005131  -0.005484  -0.013755
              25         26
     1  C   -0.001536   0.001352
     2  C   -0.005234   0.012179
     3  O    0.000666   0.002395
     4  C   -0.000035   0.000007
     5  C   -0.000001   0.000000
     6  H    0.000000  -0.000000
     7  H   -0.000000  -0.000000
     8  H   -0.000000  -0.000000
     9  N    0.000004  -0.000024
    10  H   -0.000000   0.000001
    11  H   -0.000017   0.000029
    12  C   -0.000002   0.000004
    13  H   -0.000000   0.000000
    14  H    0.000000  -0.000000
    15  H    0.000000  -0.000000
    16  Br  -0.000001   0.000089
    17  H    0.000088  -0.000019
    18  N   -0.039723  -0.045692
    19  C   -0.005083  -0.005055
    20  C    0.429529   0.397760
    21  H    0.000040   0.000182
    22  H   -0.001480   0.005131
    23  H    0.005818  -0.005484
    24  H   -0.030877  -0.013755
    25  H    0.549081  -0.035155
    26  H   -0.035155   0.552198
 Mulliken charges:
               1
     1  C   -0.477013
     2  C    0.296043
     3  O   -0.528911
     4  C    0.128453
     5  C   -0.298738
     6  H    0.155681
     7  H    0.158107
     8  H    0.143691
     9  N   -0.310557
    10  H    0.283082
    11  H    0.276728
    12  C   -0.375634
    13  H    0.149934
    14  H    0.145762
    15  H    0.150444
    16  Br  -0.188985
    17  H    0.137035
    18  N   -0.110776
    19  C   -0.285469
    20  C   -0.283227
    21  H    0.155543
    22  H    0.138406
    23  H    0.133261
    24  H    0.139360
    25  H    0.133921
    26  H    0.133861
 Sum of Mulliken charges =  -0.00000
 Mulliken charges with hydrogens summed into heavy atoms:
               1
     1  C   -0.339979
     2  C    0.296043
     3  O   -0.528911
     4  C    0.128453
     5  C    0.158741
     9  N    0.249254
    12  C    0.070505
    16  Br  -0.188985
    18  N   -0.110776
    19  C    0.141742
    20  C    0.123914
 APT charges:
               1
     1  C   -0.716668
     2  C   -0.216256
     3  O   -0.174949
     4  C   -0.030758
     5  C   -1.263263
     6  H    0.623772
     7  H    0.550184
     8  H    0.170120
     9  N   -0.574785
    10  H    0.654210
    11  H    0.308142
    12  C   -1.357570
    13  H    0.466075
    14  H    0.469229
    15  H    0.390728
    16  Br  -0.029966
    17  H    0.467435
    18  N    0.127620
    19  C   -0.987043
    20  C   -1.318411
    21  H    0.109467
    22  H    0.329824
    23  H    0.636445
    24  H    0.289571
    25  H    0.624058
    26  H    0.452789
 Sum of APT charges =  -0.00000
 APT charges with hydrogens summed into heavy atoms:
               1
     1  C   -0.249233
     2  C   -0.216256
     3  O   -0.174949
     4  C   -0.030758
     5  C    0.080813
     9  N    0.387567
    12  C   -0.031538
    16  Br  -0.029966
    18  N    0.127620
    19  C    0.088693
    20  C    0.048008
 Electronic spatial extent (au):  <R**2>=           2553.7914
 Charge=             -0.0000 electrons
 Dipole moment (field-independent basis, Debye):
    X=             -4.3213    Y=             -0.9610    Z=             -0.9075  Tot=              4.5190
 Quadrupole moment (field-independent basis, Debye-Ang):
   XX=            -64.4844   YY=            -90.4550   ZZ=            -77.6297
   XY=            -13.8379   XZ=              2.6189   YZ=             -1.2411
 Traceless Quadrupole moment (field-independent basis, Debye-Ang):
   XX=             13.0386   YY=            -12.9320   ZZ=             -0.1066
   XY=            -13.8379   XZ=              2.6189   YZ=             -1.2411
 Octapole moment (field-independent basis, Debye-Ang**2):
  XXX=            -28.1675  YYY=            -58.2513  ZZZ=            -26.2309  XYY=            -29.5740
  XXY=             -9.7473  XXZ=            -11.3909  XZZ=            -13.6832  YZZ=             -8.8302
  YYZ=             -5.3217  XYZ=              5.7292
 Hexadecapole moment (field-independent basis, Debye-Ang**3):
 XXXX=          -1653.9873 YYYY=          -1018.1062 ZZZZ=           -421.7331 XXXY=            -15.7424
 XXXZ=             30.4494 YYYX=            -48.0491 YYYZ=             25.6561 ZZZX=             16.5123
 ZZZY=              9.4414 XXYY=           -466.3860 XXZZ=           -350.4610 YYZZ=           -218.0704
 XXYZ=             -0.1842 YYXZ=             14.8748 ZZXY=              1.3524
 N-N= 9.987434405153D+02 E-N=-9.223691773965D+03  KE= 3.028860346661D+03
  Exact polarizability:   0.000   0.000   0.000   0.000   0.000   0.000
 Approx polarizability: 146.105  -7.038 151.923   6.096   3.224 133.563
   1 Symmetry operations used in ECPInt.
 ECPInt:  NShTT=   17391 NPrTT=   54616 LenC2=   16551 LenP2D=   39101.
 LDataN:  DoStor=T MaxTD1= 8 Len=  415
 D2PCM: PCM CHGder 2nd derivatives, FixD1E=F FixD2E=F DoIter=F DoCFld=F I1PDM=0
 Calling FoFJK, ICntrl=    100147 FMM=F ISym2X=0 I1Cent= 0 IOpClX= 0 NMat=1 NMatS=1 NMatT=0.
 ***** Axes restored to original set *****
 -------------------------------------------------------------------
 Center     Atomic                   Forces (Hartrees/Bohr)
 Number     Number              X              Y              Z
 -------------------------------------------------------------------
      1        6           0.000000667    0.000005031    0.000007400
      2        6          -0.000000887    0.000006147    0.000000595
      3        8          -0.000001595   -0.000002102    0.000007626
      4        6           0.007512822   -0.008899124    0.013619128
      5        6           0.000006969   -0.000006223    0.000003247
      6        1          -0.000001952    0.000002965   -0.000001000
      7        1          -0.000004650   -0.000003737    0.000002084
      8        1          -0.000006284   -0.000003963    0.000002270
      9        7          -0.007517235    0.008896129   -0.013624096
     10        1           0.000000864    0.000000082   -0.000002645
     11        1          -0.000002435    0.000003429   -0.000001669
     12        6           0.000006746    0.000000408    0.000001257
     13        1          -0.000001413   -0.000007124   -0.000001546
     14        1          -0.000003548   -0.000007620   -0.000007372
     15        1           0.000000830   -0.000009568   -0.000001274
     16       35           0.000004522    0.000000324   -0.000006458
     17        1          -0.000002997   -0.000006035   -0.000002926
     18        7           0.000001970   -0.000003519    0.000005868
     19        6           0.000000550    0.000003354   -0.000001668
     20        6           0.000001381    0.000010597   -0.000002999
     21        1          -0.000003912   -0.000001135   -0.000002222
     22        1           0.000002606    0.000000886   -0.000004045
     23        1           0.000003723    0.000001986    0.000000036
     24        1           0.000001729    0.000006083    0.000005658
     25        1          -0.000000915    0.000006134    0.000004239
     26        1           0.000002444    0.000006594    0.000000513
 -------------------------------------------------------------------
 Cartesian Forces:  Max     0.013624096 RMS     0.002869791
 FormGI is forming the generalized inverse of G from B-inverse, IUseBI=4.

 GradGradGradGradGradGradGradGradGradGradGradGradGradGradGradGradGradGrad
 Berny optimization.
 Internal  Forces:  Max     0.017926520 RMS     0.001616381
 Search for a saddle point.
 Step number   1 out of a maximum of   70
 All quantities printed in internal units (Hartrees-Bohrs-Radians)
 Swapping is turned off.
 Second derivative matrix not updated -- analytic derivatives used.
 ITU=  0
     Eigenvalues ---   -0.03028  -0.00069   0.00066   0.00154   0.00239
     Eigenvalues ---    0.00312   0.00381   0.00706   0.00972   0.01561
     Eigenvalues ---    0.02328   0.02931   0.03621   0.04370   0.04578
     Eigenvalues ---    0.04613   0.04689   0.04947   0.05300   0.05718
     Eigenvalues ---    0.05918   0.06106   0.06150   0.06284   0.07141
     Eigenvalues ---    0.08371   0.09713   0.11072   0.12391   0.12760
     Eigenvalues ---    0.13218   0.13277   0.13908   0.14518   0.14959
     Eigenvalues ---    0.15984   0.16107   0.16280   0.16668   0.17406
     Eigenvalues ---    0.17675   0.18062   0.18104   0.18607   0.19920
     Eigenvalues ---    0.21677   0.22712   0.25124   0.29838   0.31622
     Eigenvalues ---    0.32894   0.32958   0.33512   0.33938   0.34149
     Eigenvalues ---    0.34317   0.34379   0.34486   0.34931   0.35030
     Eigenvalues ---    0.35365   0.35500   0.35628   0.36788   0.38270
     Eigenvalues ---    0.38887   0.43075   0.44968   0.45092   0.49382
     Eigenvalues ---    0.52878   0.74746
 Eigenvectors required to have negative eigenvalues:
                          R6        D7        R8        D5        D10
   1                    0.82363  -0.23524  -0.19066  -0.17761  -0.15882
                          A10       D26       D25       D24       D8
   1                   -0.12527  -0.11392  -0.11377  -0.10880  -0.10119
 RFO step:  Lambda0=6.005641559D-03 Lambda=-2.65618081D-03.
 Linear search not attempted -- option 19 set.
 Maximum step size (   0.010) exceeded in Quadratic search.
    -- Step size scaled by   0.038
 Iteration  1 RMS(Cart)=  0.00575787 RMS(Int)=  0.00000746
 Iteration  2 RMS(Cart)=  0.00001442 RMS(Int)=  0.00000076
 Iteration  3 RMS(Cart)=  0.00000000 RMS(Int)=  0.00000076
 Variable       Old X    -DE/DX   Delta X   Delta X   Delta X     New X
                                 (Linear)    (Quad)   (Total)
    R1        2.80112  -0.00000   0.00000  -0.00038  -0.00038   2.80073
    R2        2.58737   0.00000   0.00000   0.00117   0.00117   2.58855
    R3        2.05123  -0.00000   0.00000   0.00002   0.00002   2.05125
    R4        2.34052  -0.00001   0.00000   0.00018   0.00018   2.34069
    R5        2.56362   0.00000   0.00000   0.00032   0.00032   2.56394
    R6        3.54331   0.01793   0.00000  -0.00781  -0.00781   3.53551
    R7        2.84743  -0.00000   0.00000   0.00029   0.00029   2.84772
    R8        3.76901   0.00000   0.00000   0.00358   0.00358   3.77259
    R9        2.05888   0.00000   0.00000  -0.00012  -0.00012   2.05876
   R10        2.05559   0.00000   0.00000  -0.00008  -0.00008   2.05551
   R11        2.06158  -0.00000   0.00000  -0.00015  -0.00015   2.06143
   R12        2.75833  -0.00000   0.00000   0.00036   0.00036   2.75869
   R13        1.91738   0.00000   0.00000   0.00005   0.00005   1.91744
   R14        1.91639  -0.00000   0.00000   0.00008   0.00008   1.91647
   R15        2.06137  -0.00000   0.00000  -0.00001  -0.00001   2.06136
   R16        2.05841   0.00001   0.00000   0.00004   0.00004   2.05845
   R17        2.05878   0.00000   0.00000  -0.00008  -0.00008   2.05870
   R18        2.73336  -0.00000   0.00000  -0.00003  -0.00003   2.73333
   R19        2.73479   0.00000   0.00000  -0.00005  -0.00005   2.73474
   R20        2.05162   0.00000   0.00000   0.00000   0.00000   2.05162
   R21        2.06430   0.00000   0.00000  -0.00002  -0.00002   2.06428
   R22        2.06833   0.00000   0.00000   0.00005   0.00005   2.06839
   R23        2.05266  -0.00000   0.00000  -0.00000  -0.00000   2.05265
   R24        2.06911  -0.00000   0.00000   0.00004   0.00004   2.06914
   R25        2.06165   0.00000   0.00000   0.00002   0.00002   2.06167
    A1        2.16992   0.00000   0.00000  -0.00035  -0.00035   2.16956
    A2        1.98244  -0.00000   0.00000  -0.00048  -0.00048   1.98196
    A3        1.99932  -0.00000   0.00000  -0.00108  -0.00108   1.99825
    A4        2.10438   0.00000   0.00000   0.00036   0.00036   2.10475
    A5        2.08199  -0.00000   0.00000   0.00014   0.00014   2.08213
    A6        2.09680   0.00000   0.00000  -0.00051  -0.00051   2.09629
    A7        1.93676   0.00000   0.00000   0.00133   0.00133   1.93809
    A8        2.08689  -0.00001   0.00000  -0.00112  -0.00112   2.08577
    A9        2.04911   0.00000   0.00000   0.00000  -0.00000   2.04911
   A10        1.75425   0.00001   0.00000   0.00215   0.00215   1.75640
   A11        1.64112  -0.00000   0.00000   0.00006   0.00006   1.64118
   A12        1.91804   0.00000   0.00000  -0.00145  -0.00146   1.91658
   A13        1.90592  -0.00000   0.00000   0.00026   0.00026   1.90617
   A14        1.90361   0.00000   0.00000   0.00044   0.00044   1.90405
   A15        1.94960  -0.00000   0.00000  -0.00091  -0.00091   1.94869
   A16        1.91076  -0.00000   0.00000   0.00044   0.00044   1.91120
   A17        1.91173   0.00000   0.00000  -0.00006  -0.00006   1.91167
   A18        1.88185   0.00000   0.00000  -0.00015  -0.00015   1.88170
   A19        1.94232  -0.00000   0.00000   0.00047   0.00047   1.94278
   A20        1.98003   0.00000   0.00000  -0.00230  -0.00230   1.97773
   A21        1.78155   0.00000   0.00000   0.00164   0.00164   1.78320
   A22        1.95172   0.00000   0.00000   0.00026   0.00026   1.95198
   A23        1.92263  -0.00000   0.00000   0.00007   0.00007   1.92270
   A24        1.87657  -0.00000   0.00000   0.00000   0.00000   1.87658
   A25        1.90990  -0.00000   0.00000   0.00010   0.00010   1.91001
   A26        1.96082  -0.00000   0.00000   0.00007   0.00007   1.96089
   A27        1.91178   0.00000   0.00000  -0.00013  -0.00013   1.91164
   A28        1.89935   0.00000   0.00000  -0.00002  -0.00002   1.89933
   A29        1.89103  -0.00000   0.00000   0.00006   0.00006   1.89109
   A30        1.88963  -0.00000   0.00000  -0.00009  -0.00009   1.88955
   A31        2.17062  -0.00000   0.00000  -0.00003  -0.00003   2.17059
   A32        2.08707  -0.00000   0.00000  -0.00005  -0.00005   2.08702
   A33        2.01087   0.00001   0.00000  -0.00015  -0.00015   2.01072
   A34        1.91291  -0.00000   0.00000  -0.00010  -0.00010   1.91281
   A35        1.93259   0.00000   0.00000   0.00018   0.00018   1.93277
   A36        1.91510  -0.00000   0.00000  -0.00009  -0.00009   1.91501
   A37        1.90402  -0.00000   0.00000   0.00004   0.00004   1.90406
   A38        1.90731   0.00000   0.00000   0.00002   0.00002   1.90734
   A39        1.89160   0.00000   0.00000  -0.00004  -0.00004   1.89156
   A40        1.91731   0.00000   0.00000  -0.00000  -0.00000   1.91731
   A41        1.94515  -0.00000   0.00000   0.00010   0.00010   1.94525
   A42        1.90385   0.00000   0.00000   0.00002   0.00002   1.90387
   A43        1.89523  -0.00000   0.00000  -0.00008  -0.00008   1.89514
   A44        1.91077   0.00000   0.00000   0.00001   0.00001   1.91078
   A45        1.89115   0.00000   0.00000  -0.00005  -0.00005   1.89110
    D1        1.66485   0.00000   0.00000   0.00144   0.00144   1.66629
    D2       -1.48244   0.00000   0.00000   0.00144   0.00144  -1.48101
    D3       -0.91655   0.00000   0.00000   0.00549   0.00549  -0.91107
    D4        2.21934   0.00000   0.00000   0.00548   0.00548   2.22482
    D5       -1.05019   0.00000   0.00000   0.00715   0.00715  -1.04305
    D6       -3.07888  -0.00000   0.00000   0.00394   0.00394  -3.07493
    D7        0.80799  -0.00000   0.00000   0.00810   0.00810   0.81609
    D8        1.52646   0.00000   0.00000   0.00324   0.00324   1.52969
    D9       -0.50223  -0.00000   0.00000   0.00003   0.00003  -0.50219
   D10       -2.89854  -0.00000   0.00000   0.00419   0.00419  -2.89436
   D11       -0.26604   0.00000   0.00000  -0.00267  -0.00267  -0.26872
   D12        3.06756   0.00000   0.00000  -0.00123  -0.00123   3.06632
   D13        2.86987   0.00000   0.00000  -0.00267  -0.00267   2.86720
   D14       -0.07971   0.00000   0.00000  -0.00123  -0.00123  -0.08095
   D15       -1.06512   0.00000   0.00000  -0.00122  -0.00122  -1.06634
   D16        2.99890   0.00000   0.00000  -0.00009  -0.00009   2.99881
   D17        0.98545   0.00000   0.00000  -0.00003  -0.00003   0.98542
   D18        1.15998  -0.00000   0.00000  -0.00051  -0.00051   1.15947
   D19       -1.05919  -0.00000   0.00000   0.00062   0.00062  -1.05857
   D20       -3.07264  -0.00000   0.00000   0.00068   0.00068  -3.07196
   D21        3.09909   0.00000   0.00000  -0.00167  -0.00167   3.09742
   D22        0.87992   0.00000   0.00000  -0.00054  -0.00054   0.87938
   D23       -1.13353   0.00000   0.00000  -0.00048  -0.00048  -1.13401
   D24        0.73610   0.00000   0.00000   0.00207   0.00207   0.73817
   D25        2.84784   0.00000   0.00000   0.00216   0.00216   2.85000
   D26       -1.33460   0.00000   0.00000   0.00201   0.00201  -1.33260
   D27       -1.38591  -0.00000   0.00000  -0.00068  -0.00068  -1.38659
   D28        0.72582   0.00000   0.00000  -0.00059  -0.00059   0.72523
   D29        2.82656   0.00000   0.00000  -0.00074  -0.00074   2.82582
   D30       -3.10035  -0.00000   0.00000  -0.00125  -0.00124  -3.10159
   D31       -0.98861  -0.00000   0.00000  -0.00115  -0.00115  -0.98976
   D32        1.11213  -0.00000   0.00000  -0.00131  -0.00130   1.11082
   D33        2.79286  -0.00000   0.00000   0.00241   0.00241   2.79527
   D34       -1.25582   0.00000   0.00000  -0.00009  -0.00009  -1.25592
   D35        0.82989  -0.00000   0.00000   0.00012   0.00012   0.83001
   D36       -1.37642   0.00000   0.00000   0.00210   0.00210  -1.37432
   D37        0.85809   0.00000   0.00000  -0.00041  -0.00041   0.85768
   D38        2.94380  -0.00000   0.00000  -0.00019  -0.00019   2.94361
   D39        0.70156  -0.00000   0.00000   0.00251   0.00251   0.70406
   D40        2.93606  -0.00000   0.00000   0.00000   0.00000   2.93606
   D41       -1.26141  -0.00000   0.00000   0.00022   0.00022  -1.26120
   D42        0.07117   0.00000   0.00000   0.00069   0.00069   0.07186
   D43        2.17253  -0.00000   0.00000   0.00078   0.00078   2.17331
   D44       -2.02330  -0.00000   0.00000   0.00078   0.00078  -2.02252
   D45        3.02829   0.00000   0.00000  -0.00069  -0.00069   3.02760
   D46       -1.15354  -0.00000   0.00000  -0.00060  -0.00060  -1.15414
   D47        0.93381   0.00000   0.00000  -0.00060  -0.00060   0.93321
   D48       -0.47840   0.00000   0.00000  -0.00039  -0.00039  -0.47878
   D49        1.62293  -0.00000   0.00000  -0.00043  -0.00043   1.62250
   D50       -2.57286   0.00000   0.00000  -0.00041  -0.00041  -2.57328
   D51        2.83819   0.00000   0.00000   0.00092   0.00092   2.83911
   D52       -1.34366  -0.00000   0.00000   0.00087   0.00087  -1.34279
   D53        0.74373  -0.00000   0.00000   0.00089   0.00089   0.74461
         Item               Value     Threshold  Converged?
 Maximum Force            0.017927     0.000450     NO 
 RMS     Force            0.001616     0.000300     NO 
 Maximum Displacement     0.020038     0.001800     NO 
 RMS     Displacement     0.005760     0.001200     NO 
 Predicted change in Energy= 1.376977D-04
 GradGradGradGradGradGradGradGradGradGradGradGradGradGradGradGradGradGrad

                          Input orientation:                          
 ---------------------------------------------------------------------
 Center     Atomic      Atomic             Coordinates (Angstroms)
 Number     Number       Type             X           Y           Z
 ---------------------------------------------------------------------
      1          6           0        0.065489    0.748123    1.082186
      2          6           0        1.267163    1.084347    0.282497
      3          8           0        1.375040    2.194012   -0.257166
      4          6           0       -1.022860    0.074419    0.594360
      5          6           0       -2.272570    2.318420   -0.415358
      6          1           0       -2.402309    2.986464   -1.266115
      7          1           0       -3.220559    2.217442    0.108356
      8          1           0       -1.526830    2.740771    0.259527
      9          7           0       -1.802430    1.000671   -0.832046
     10          1           0       -2.528766    0.472790   -1.304615
     11          1           0       -1.024944    1.094559   -1.476409
     12          6           0       -2.224194   -0.134972    1.479707
     13          1           0       -2.431353    0.781858    2.033251
     14          1           0       -3.112638   -0.412132    0.913679
     15          1           0       -2.014639   -0.928348    2.196273
     16         35           0       -0.678343   -1.572901   -0.479482
     17          1           0       -0.165688    1.482323    1.847542
     18          7           0        2.255984    0.164645    0.151219
     19          6           0        2.392474   -1.011643    0.981783
     20          6           0        3.388093    0.450098   -0.703836
     21          1           0        1.550330   -1.075388    1.663997
     22          1           0        2.425640   -1.915733    0.369575
     23          1           0        3.320894   -0.951012    1.558310
     24          1           0        3.092328    1.139059   -1.489790
     25          1           0        4.213158    0.897473   -0.139898
     26          1           0        3.741782   -0.480572   -1.149945
 ---------------------------------------------------------------------
                    Distance matrix (angstroms):
                    1          2          3          4          5
     1  C    0.000000
     2  C    1.482083   0.000000
     3  O    2.366302   1.238641   0.000000
     4  C    1.369801   2.522185   3.311752   0.000000
     5  C    3.189826   3.813089   3.653158   2.759863   0.000000
     6  H    4.076115   4.413760   3.989277   3.720786   1.089451
     7  H    3.728988   4.631833   4.610172   3.107833   1.087729
     8  H    2.680092   3.248179   2.997794   2.734142   1.090862
     9  N    2.686482   3.266743   3.442509   1.870910   1.459837
    10  H    3.535927   4.159568   4.393115   2.456126   2.064646
    11  H    2.802761   2.889223   2.907795   2.308413   2.044563
    12  C    2.486067   3.887110   4.625515   1.506947   3.100442
    13  H    2.672056   4.103128   4.661419   2.134182   2.895155
    14  H    3.387488   4.671242   5.319975   2.169302   3.150868
    15  H    2.894594   4.299268   5.220960   2.134314   4.174763
    16  Br   2.894692   3.380321   4.295980   1.996369   4.205716
    17  H    1.085477   2.158891   2.703727   2.070604   3.202925
    18  N    2.450595   1.356780   2.249705   3.309884   5.046539
    19  C    2.919198   2.479617   3.584187   3.604738   5.899488
    20  C    3.783965   2.423524   2.700580   4.613346   5.967995
    21  H    2.422488   2.579375   3.796126   3.014546   5.518715
    22  H    3.629637   3.217162   4.287957   3.987906   6.373175
    23  H    3.702893   3.160410   4.119888   4.566060   6.772842
    24  H    3.991196   2.544646   2.362491   4.734122   5.597091
    25  H    4.326541   2.981984   3.122448   5.350929   6.645272
    26  H    4.472944   3.259540   3.681293   5.104158   6.674309
                    6          7          8          9         10
     6  H    0.000000
     7  H    1.774851   0.000000
     8  H    1.776067   1.779169   0.000000
     9  N    2.119350   2.091883   2.072544   0.000000
    10  H    2.517147   2.349228   2.931579   1.014664   0.000000
    11  H    2.349609   2.931393   2.444458   1.014151   1.636335
    12  C    4.161085   2.899517   3.200790   2.609937   2.866110
    13  H    3.968243   2.527641   2.793134   2.941658   3.353559
    14  H    4.099576   2.752245   3.589360   2.600041   2.458622
    15  H    5.240628   3.963539   4.177485   3.596786   3.805750
    16  Br   4.937475   4.601642   4.458007   2.830396   2.879194
    17  H    4.118225   3.591295   2.440940   3.176650   4.066864
    18  N    5.627717   5.848788   4.577973   4.258694   5.010812
    19  C    6.635349   6.534218   5.473866   4.993656   5.625812
    20  C    6.346501   6.888936   5.507424   5.221216   5.947325
    21  H    6.380247   6.002010   5.099462   4.667039   5.277171
    22  H    7.072207   7.002209   6.108778   5.275025   5.749269
    23  H    7.499076   7.411617   6.230290   5.980913   6.666489
    24  H    5.801204   6.600721   5.192515   4.940691   5.663471
    25  H    7.028276   7.554078   6.041916   6.056156   6.854959
    26  H    7.055756   7.572105   6.334188   5.747471   6.344493
                   11         12         13         14         15
    11  H    0.000000
    12  C    3.418855   0.000000
    13  H    3.793874   1.090827   0.000000
    14  H    3.512991   1.089283   1.772908   0.000000
    15  H    4.308160   1.089416   1.767776   1.765540   0.000000
    16  Br   2.868682   2.880228   3.864164   3.035469   3.059543
    17  H    3.455044   2.643557   2.378735   3.625683   3.058033
    18  N    3.778677   4.682590   5.088627   5.453083   4.859537
    19  C    4.707180   4.725474   5.252765   5.538078   4.572151
    20  C    4.526267   6.050449   6.439539   6.754206   6.284923
    21  H    4.604655   3.894275   4.409026   4.769293   3.607484
    22  H    4.937211   5.101418   5.799587   5.764494   4.901820
    23  H    5.681565   5.605364   6.026338   6.488164   5.373585
    24  H    4.117534   6.221453   6.561285   6.832603   6.628902
    25  H    5.409512   6.717780   6.991815   7.516142   6.897592
    26  H    5.030834   6.528965   7.059325   7.158652   6.673384
                   16         17         18         19         20
    16  Br   0.000000
    17  H    3.874564   0.000000
    18  N    3.468014   3.237017   0.000000
    19  C    3.446770   3.676084   1.446416   0.000000
    20  C    4.547391   4.494928   1.447161   2.443206   0.000000
    21  H    3.131933   3.085496   2.079453   1.085673   3.363199
    22  H    3.236224   4.521742   2.098675   1.092372   2.770502
    23  H    4.531362   4.261575   2.087733   1.094543   2.661753
    24  H    4.753252   4.676567   2.083714   3.350222   1.086218
    25  H    5.490432   4.844198   2.110052   2.866668   1.094944
    26  H    4.602196   5.301528   2.077722   2.578165   1.090988
                   21         22         23         24         25
    21  H    0.000000
    22  H    1.774226   0.000000
    23  H    1.778071   1.773487   0.000000
    24  H    4.150651   3.637783   3.702912   0.000000
    25  H    3.773178   3.371781   2.664009   1.771111   0.000000
    26  H    3.615873   2.469991   2.780847   1.777776   1.772399
                   26
    26  H    0.000000
 Stoichiometry    C7H15BrN2O
 Framework group  C1[X(C7H15BrN2O)]
 Deg. of freedom    72
 Full point group                 C1      NOp   1
 Largest Abelian subgroup         C1      NOp   1
 Largest concise Abelian subgroup C1      NOp   1
                         Standard orientation:                         
 ---------------------------------------------------------------------
 Center     Atomic      Atomic             Coordinates (Angstroms)
 Number     Number       Type             X           Y           Z
 ---------------------------------------------------------------------
      1          6           0        0.068298    0.748595    1.079595
      2          6           0        1.271680    1.080723    0.280764
      3          8           0        1.383904    2.190160   -0.258484
      4          6           0       -1.022172    0.078980    0.590877
      5          6           0       -2.263133    2.327795   -0.418919
      6          1           0       -2.389924    2.996568   -1.269548
      7          1           0       -3.211808    2.230080    0.104169
      8          1           0       -1.516295    2.747239    0.256565
      9          7           0       -1.797496    1.008485   -0.835726
     10          1           0       -2.525438    0.483380   -1.308914
     11          1           0       -1.019272    1.099765   -1.479572
     12          6           0       -2.224810   -0.126345    1.475407
     13          1           0       -2.429002    0.791055    2.029109
     14          1           0       -3.113894   -0.400117    0.908736
     15          1           0       -2.018571   -0.920696    2.191856
     16         35           0       -0.682936   -1.569240   -0.483265
     17          1           0       -0.160704    1.483387    1.845036
     18          7           0        2.257253    0.157495    0.149817
     19          6           0        2.388972   -1.019537    0.980097
     20          6           0        3.390923    0.439122   -0.704440
     21          1           0        1.546176   -1.080450    1.661764
[...]
 00138,-0.00000194,0.00001908,0.00004975,-0.00001589,-0.00004656,-0.000
 01871,-0.00001122,-0.00487814,-0.00086140,-0.00169802,0.00026394,-0.00
 005947,-0.00009843,-0.09490833,0.04868438,0.00688768,0.58772771,-0.003
 37240,-0.00402042,0.00220764,0.01888521,-0.04155794,-0.00139075,0.0022
 1720,0.00857395,-0.00063159,0.00211570,0.00258776,0.00245488,0.0000357
 5,-0.00030781,-0.00010159,-0.00002322,0.00009467,-0.00001149,-0.000054
 74,0.00002072,0.00000182,0.00011009,-0.00009817,0.00005987,-0.00075361
 ,0.00012460,-0.00148755,0.00004868,0.00019312,-0.00010247,0.00020882,0
 .00001853,0.00029499,-0.00011151,-0.00052555,-0.00000240,0.00006467,0.
 00000122,-0.00007421,-0.00013506,-0.00003859,0.00001301,-0.00019560,-0
 .00001931,-0.00001354,-0.00157835,-0.00090014,-0.00120561,-0.00063993,
 -0.00029641,0.00071130,0.01805390,-0.18534358,0.06372464,0.01884285,0.
 52177273,0.00154981,-0.00099984,-0.00015807,-0.00945535,-0.01150072,0.
 00623437,0.00551236,-0.00786246,-0.00042001,-0.00103664,-0.00161974,-0
 .00095665,0.00001028,0.00014841,0.00002430,0.00000959,-0.00002668,0.00
 000778,0.00002271,-0.00000769,0.00000309,-0.00006262,0.00005253,-0.000
 04269,0.00046043,0.00008367,0.00061378,0.00003576,-0.00017795,0.000109
 04,-0.00013220,0.00004022,-0.00015081,0.00006013,0.00004711,-0.0000647
 0,-0.00000262,0.00002938,0.00001756,0.00004653,0.00005084,0.00002151,0
 .00006314,0.00000889,0.00001054,-0.00285655,0.00006811,-0.00106495,0.0
 0055178,0.00005233,-0.00020912,0.01346938,0.07293311,-0.10409518,-0.04
 957909,0.03613571,0.56926893,0.00469615,0.00347342,0.00232817,-0.03275
 348,0.00339452,0.01961710,0.00091014,-0.00816809,-0.00187161,-0.001026
 06,-0.00121023,-0.00151571,-0.00001080,0.00018635,0.00007777,0.0000134
 4,-0.00006306,0.00001409,0.00004699,-0.00001166,0.00000503,-0.00008955
 ,0.00007370,-0.00003467,0.00044842,-0.00013454,0.00073357,-0.00003095,
 -0.00006715,0.00001537,-0.00022207,0.00001429,-0.00020617,0.00004032,0
 .00010175,-0.00001779,0.00003198,-0.00001899,0.00000702,0.00006195,-0.
 00001521,-0.00002615,0.00008843,0.00002928,0.00000703,0.00025698,0.000
 29444,0.00021746,-0.00063146,-0.00014001,0.00015571,-0.16828034,-0.032
 95566,0.07658030,0.00328967,-0.00054208,-0.00300008,0.52477313,0.00477
 179,-0.00184385,-0.00103341,0.01403579,0.01781741,-0.01280284,0.002333
 73,-0.00280916,-0.00231395,-0.00162731,-0.00210650,-0.00268021,-0.0000
 4341,0.00018140,0.00009241,0.00002234,-0.00005660,0.00001540,0.0000230
 1,-0.00000726,-0.00000742,-0.00003756,0.00007726,-0.00006617,0.0005246
 0,-0.00011560,0.00097608,-0.00000789,-0.00009976,0.00008829,-0.0000395
 4,0.00000345,-0.00011350,0.00018719,0.00025771,0.00007495,-0.00000774,
 0.00003575,0.00006022,0.00011887,0.00003365,-0.00002478,0.00009502,0.0
 0004934,0.00000165,0.00008683,0.00080797,0.00056475,0.00120239,-0.0000
 0537,-0.00026945,-0.02404094,-0.11872282,0.03336105,-0.02670015,-0.013
 16692,0.02123484,-0.04237128,0.60724466,0.00046743,-0.00088604,0.00362
 372,0.02364080,-0.01070364,-0.01562558,-0.00022757,0.00976753,-0.00594
 027,0.00180984,0.00047342,0.00089630,0.00002476,-0.00019933,-0.0001092
 6,-0.00002055,0.00008479,-0.00000100,-0.00004311,0.00001417,-0.0000011
 6,0.00009121,-0.00006613,0.00005005,-0.00056822,0.00024835,-0.00105639
 ,0.00002091,0.00010603,-0.00005997,0.00015751,-0.00003931,0.00022597,0
 .00000665,0.00005169,-0.00010895,0.00000255,0.00002581,0.00001956,-0.0
 0006931,0.00001646,-0.00004444,-0.00004498,0.00001470,-0.00001007,-0.0
 0017926,-0.00003383,0.00015658,-0.00020195,-0.00047155,0.00099303,0.05
 794636,0.03062777,-0.11311273,0.01159762,0.01283265,-0.01647227,0.0271
 4419,0.00075730,0.55473256,-0.00115250,0.00068182,-0.00038814,0.000465
 87,0.00166613,-0.00025668,-0.00024835,-0.00066786,-0.00029406,-0.00073
 866,0.00061551,-0.00045545,-0.00000211,0.00005743,0.00004278,0.0000108
 9,-0.00001416,0.00000529,0.00000642,-0.00000279,-0.00000264,-0.0000180
 2,0.00002717,-0.00002657,0.00020571,-0.00008049,0.00013585,-0.00002447
 ,-0.00007881,0.00001567,0.00000475,0.00000733,-0.00004433,-0.00002225,
 -0.00000652,-0.00001207,0.00000414,-0.00000231,-0.00001164,0.00002510,
 0.00002377,0.00003019,0.00001200,-0.00001268,0.00002390,-0.00285949,-0
 .00076600,-0.00173296,0.00018815,-0.00033322,0.00018742,0.00515986,0.0
 0030893,-0.00575880,-0.18865211,-0.03642634,0.14126393,0.00063911,0.00
 079709,0.00012018,0.20212629,-0.00025851,-0.00006718,-0.00118977,-0.00
 224391,0.00074811,0.00196051,0.00031978,-0.00017431,0.00008176,0.00155
 214,0.00085430,0.00176441,0.00001848,-0.00009921,-0.00006816,-0.000008
 56,0.00002238,-0.00000284,-0.00000766,0.00000110,0.00000502,0.00000890
 ,-0.00004524,0.00004527,-0.00034842,0.00004580,-0.00066383,-0.00002047
 ,0.00007008,-0.00008714,-0.00003227,0.00001451,0.00001354,-0.00003007,
 -0.00002364,-0.00004125,-0.00002081,-0.00001690,-0.00001819,-0.0000629
 9,0.00000947,0.00000589,-0.00003929,-0.00002838,-0.00000556,-0.0006258
 5,-0.00050474,-0.00075204,-0.00016555,0.00017361,-0.00005688,-0.024089
 21,-0.00927080,0.02211935,-0.02756511,-0.05603818,0.02964391,0.0030653
 6,-0.00465416,0.00182885,0.03687163,0.06401196,0.00118789,-0.00107311,
 0.00063079,0.00189841,-0.00158746,-0.00027369,-0.00027678,0.00054186,0
 .00010372,-0.00101315,0.00056912,-0.00065365,-0.00002296,0.00004986,0.
 00012775,0.00001831,-0.00004870,0.00000038,0.00000802,-0.00000337,-0.0
 0001069,0.00000771,0.00002041,-0.00002907,0.00013858,-0.00031365,0.000
 30563,-0.00003698,0.00007609,-0.00003143,0.00004263,0.00003382,-0.0000
 3091,-0.00000915,-0.00015827,0.00007322,0.00005414,-0.00002216,-0.0000
 3424,0.00002050,-0.00002373,-0.00000852,0.00000271,0.00003571,-0.00000
 573,0.00011358,-0.00039246,-0.00004278,-0.00000702,-0.00013433,0.00006
 139,0.01100428,0.00453184,-0.01220115,0.13343864,0.03610176,-0.1805850
 1,-0.00203459,0.00201601,-0.00069512,-0.14853974,-0.04134797,0.1936093
 2,-0.00035978,0.00012830,-0.00049464,0.00122975,0.00118483,-0.00015611
 ,-0.00051152,0.00112245,-0.00009523,0.00033230,0.00094156,0.00086948,0
 .00001061,-0.00002190,0.00002688,-0.00000050,-0.00000722,-0.00000412,-
 0.00000201,-0.00000131,-0.00000103,0.00000852,-0.00002128,0.00000909,-
 0.00008975,-0.00012558,-0.00022766,-0.00002499,0.00005023,-0.00005586,
 0.00001436,0.00001848,0.00000191,-0.00004790,-0.00002860,-0.00004576,-
 0.00000688,-0.00002423,-0.00001958,-0.00004296,-0.00000239,0.00000238,
 -0.00000974,-0.00001163,-0.00000018,-0.00027466,-0.00008465,-0.0000436
 3,-0.00011560,-0.00001767,0.00003679,-0.00107367,0.00760381,0.00605928
 ,-0.04803313,-0.00279861,-0.00187105,0.00014083,-0.00056388,-0.0003262
 7,0.00108384,0.01683597,0.01438371,0.04760781,0.00091885,0.00054204,-0
 .00020972,-0.00756214,0.00026627,0.00249640,0.00191121,-0.00400494,-0.
 00008325,-0.00080322,-0.00089450,-0.00095518,-0.00001311,0.00006558,0.
 00000647,0.00000726,-0.00001612,0.00000569,0.00001397,-0.00000320,0.00
 000147,-0.00003262,0.00003295,-0.00001898,0.00018760,0.00000883,0.0004
 4579,0.00000721,-0.00005116,0.00005077,-0.00005427,-0.00000921,-0.0000
 6119,0.00004326,0.00016117,0.00005336,-0.00002511,0.00000763,0.0000365
 1,0.00005797,-0.00000171,-0.00001118,0.00004239,0.00000938,0.00000055,
 -0.00045562,0.00051657,0.00030488,0.00015109,0.00010641,-0.00014323,0.
 00963066,-0.03131017,-0.01229770,-0.00106127,-0.18552513,-0.12975580,0
 .00173902,0.00036307,-0.00193125,0.00034927,0.00560594,0.00392110,-0.0
 0330779,0.21417440,0.00007435,-0.00025562,0.00050726,0.00133704,0.0023
 9797,-0.00056170,-0.00106873,0.00080274,0.00025482,-0.00037536,-0.0004
 9348,-0.00049610,-0.00000328,0.00001607,-0.00001810,0.,0.00000793,0.00
 000236,-0.00000203,-0.00000184,-0.00000060,0.00000163,0.00001178,-0.00
 000583,0.00004080,0.00009511,0.00013367,0.00002366,-0.00003077,0.00004
 331,-0.00001732,-0.00001209,-0.00000466,0.00001194,0.00005025,0.000038
 73,-0.00000649,0.00001407,0.00002352,0.00003234,-0.00000179,-0.0000115
 3,0.00000654,0.00000635,0.00000251,-0.00084247,0.00036772,0.00000278,0
 .00004819,-0.00001392,-0.00000215,-0.00039041,0.01673355,0.01382144,0.
 00153369,-0.13503544,-0.17478694,-0.00084776,0.00050746,0.00139843,-0.
 00247286,-0.01515685,-0.01299007,0.00253382,0.14004982,0.18192850,-0.0
 0233830,0.00001445,0.00006183,0.00257801,-0.00361213,-0.00272871,-0.00
 033006,0.00164571,-0.00015676,0.00159094,0.00072228,0.00155605,0.00003
 278,-0.00014946,-0.00013561,-0.00001650,0.00006679,-0.00000049,-0.0000
 2441,0.00000540,0.00000658,0.00002668,-0.00005135,0.00004463,-0.000406
 47,0.00026324,-0.00083103,0.00003099,0.00002296,-0.00003161,0.00000180
 ,-0.00000959,0.00008269,-0.00002298,-0.00002682,-0.00004551,-0.0000209
 5,0.00001612,0.00000262,-0.00005159,0.00002287,0.00000004,-0.00005716,
 -0.00002797,-0.00000344,-0.00071036,-0.00019425,-0.00043924,-0.0000655
 7,-0.00007284,0.00014642,-0.00619056,0.00912053,-0.00325942,-0.2495504
 3,-0.01768407,-0.09575121,0.00201138,0.00021032,0.00267337,-0.01650703
 ,-0.00195114,-0.01115840,0.00008446,-0.00064277,0.00063288,0.26931076,
 0.00111722,0.00082054,-0.00068841,-0.00221818,0.00509637,0.00673512,-0
 .00075206,-0.00277379,-0.00103835,-0.00062210,-0.00133076,-0.00107766,
 -0.00001934,0.00007871,-0.00000949,0.00000187,-0.00001107,0.00000439,0
 .00001055,-0.00000521,0.00000011,-0.00002372,0.00003077,-0.00001791,0.
 00018168,0.00006947,0.00051442,0.00001165,-0.00007467,0.00005708,-0.00
 006469,-0.00003378,-0.00005434,0.00002790,0.00012483,0.00002070,-0.000
 01607,0.00001354,0.00003364,0.00005496,0.00000042,0.00000266,0.0000481
 2,0.00000715,0.00000346,-0.00103234,0.00037975,0.00003442,0.00006586,0
 .00018001,-0.00022668,0.03444477,-0.01333065,0.01809300,-0.01978407,-0
 .04949221,-0.01038302,0.00274244,0.00177125,-0.00073726,-0.00361949,-0
 .00037178,-0.00335416,-0.02114944,-0.00038132,-0.00915183,0.01169218,0
 .05948016,-0.00017610,-0.00080335,0.00048472,0.00250646,-0.00417741,-0
 .00387363,0.00003025,0.00260821,0.00001548,0.00007757,0.00039312,0.000
 22561,0.00000913,-0.00005209,-0.00000933,-0.00000262,0.00001900,-0.000
 00003,-0.00001058,0.00000337,-0.00000082,0.00002734,-0.00001661,0.0000
 0584,-0.00017718,0.00002229,-0.00022067,-0.00000446,0.00004994,-0.0000
 2570,0.00005739,0.00000838,0.00006071,-0.00002206,-0.00006511,0.000005
 89,0.00001360,0.00000376,-0.00000270,-0.00001030,-0.00000244,-0.000007
 69,-0.00002128,0.00000467,-0.00000049,0.00015303,0.00007295,0.00019842
 ,-0.00004897,-0.00011469,0.00016949,-0.01589737,0.01268997,-0.00551197
 ,-0.09454037,-0.01096609,-0.09809473,-0.00126128,-0.00047625,0.0007402
 5,0.01842029,0.00098269,0.01254628,-0.02041028,-0.00263279,-0.00899123
 ,0.11079390,0.00249706,0.10256062,-0.00038732,-0.00030602,-0.00047023,
 0.00148919,-0.00172591,0.00051479,-0.00144966,0.00151989,0.00079603,0.
 00001387,0.00006814,0.00014111,0.00000054,-0.00001379,-0.00001557,-0.0
 0000052,0.00000538,0.00000004,-0.00000120,-0.00000062,-0.00000025,0.00
 001093,-0.00000507,0.00000284,-0.00003170,0.00002603,-0.00006188,0.000
 00514,0.00000473,-0.00000736,0.,-0.00000423,-0.00000634,-0.00000322,-0
 .00001958,-0.00000072,-0.00000127,0.00000385,0.00000045,-0.00000676,0.
 00000091,0.00000335,-0.00000950,-0.00000203,-0.00000004,-0.00000526,0.
 00001925,-0.00001801,0.00007982,-0.00001957,-0.00000019,0.00796750,-0.
 02399554,0.01805332,-0.00353223,0.00005918,0.00290285,-0.07887161,0.07
 118769,-0.05402852,0.00020415,-0.00123298,0.00081357,-0.00002615,0.000
 03378,-0.00020823,0.00014160,-0.00002821,0.00020383,0.08382184,-0.0002
 7081,-0.00000860,0.00019767,0.00118386,-0.00203804,-0.00143498,0.00182
 582,0.00044409,-0.00190568,0.00031371,0.00011171,0.00027105,0.00000679
 ,-0.00002245,-0.00001650,-0.00000407,0.00000998,-0.00000108,-0.0000021
 7,0.00000177,0.00000115,-0.00000177,-0.00000642,0.00000984,-0.00007595
 ,0.00003890,-0.00013909,0.00000656,0.00000676,-0.00000758,-0.00000457,
 -0.00001228,0.00001343,-0.00000639,0.00000029,-0.00001125,-0.00000431,
 0.00000043,-0.00000068,-0.00000988,0.00000030,-0.00000186,-0.00000657,
 -0.00000418,-0.00000285,-0.00003379,-0.00002949,-0.00004139,-0.0000281
 5,0.00007173,0.00001205,-0.00010270,-0.01026636,0.00685188,-0.00237502
 ,0.00084653,0.00178066,0.06445732,-0.20753990,0.12159485,0.00027321,-0
 .00062393,0.00045511,0.00006494,0.00024104,-0.00003939,0.00018533,0.00
 007712,-0.00012195,-0.06905404,0.22522341,0.00004425,-0.00017214,0.000
 14665,-0.00040908,0.00462835,0.00041229,-0.00079190,-0.00242634,0.0010
 0082,-0.00001087,0.00001791,0.00003656,0.00000603,0.00001902,0.0000187
 7,-0.00000367,-0.00000333,-0.00000194,-0.00000122,-0.00000360,-0.00000
 147,0.00000289,-0.00000531,-0.00000339,0.00001558,-0.00002037,0.000005
 97,-0.00000449,0.00000231,-0.00000690,0.00000708,0.00001994,-0.0000089
 5,-0.00001416,0.00000749,-0.00001880,0.00000084,-0.00000306,-0.0000022
 4,-0.00000464,0.00000077,0.00000018,0.00000596,-0.00000084,-0.00000086
 ,0.00005646,-0.00003574,0.00000091,-0.00002239,-0.00000548,-0.00002939
 ,-0.00345635,0.01502317,-0.01272292,0.00312084,-0.00083809,-0.00200484
 ,-0.04686093,0.11759381,-0.13523946,-0.00003422,0.00105088,-0.00017917
 ,-0.00006795,0.00017496,0.00023261,0.00006063,-0.00033703,0.00022828,0
 .04898499,-0.13418217,0.14482003,-0.00102048,-0.00017338,0.00104722,0.
 00325790,-0.00882825,-0.00289649,0.00076406,0.00357909,-0.00129631,0.0
 0112182,0.00082520,0.00111756,0.00002197,-0.00014471,-0.00008784,-0.00
 001233,0.00005244,0.,-0.00002279,0.00000791,0.00000443,0.00004228,-0.0
 0004558,0.00003781,-0.00038489,0.00013402,-0.00071731,0.00001000,0.000
 07369,-0.00005139,0.00007296,-0.00000841,0.00012138,-0.00003953,-0.000
 07159,-0.00005078,0.00000396,0.00000631,-0.00000706,-0.00005883,-0.000
 00010,-0.00000668,-0.00005342,-0.00000922,-0.00000355,-0.00007087,-0.0
 0020093,-0.00010192,-0.00027970,-0.00020343,0.00040619,-0.03361262,-0.
 00871985,-0.00037108,-0.00041956,0.00220767,-0.00130257,-0.18662645,-0
 .05440368,-0.11081387,0.00017855,0.00000342,0.00021315,0.00010714,-0.0
 0048361,0.00001805,0.00048159,-0.00077446,0.00033754,-0.00655708,-0.00
 277812,-0.00634880,0.21497209,-0.00031784,-0.00009264,0.00007172,0.001
 95583,-0.00195276,-0.00096395,-0.00072432,0.00193604,0.00053617,0.0002
 7614,0.00019132,0.00028950,0.00000323,-0.00003527,-0.00001673,-0.00000
 439,0.00001270,-0.00000429,-0.00000876,0.00000149,-0.00000106,0.000021
 53,-0.00001707,0.00000982,-0.00009911,0.00003459,-0.00016227,0.0000062
 8,0.00001598,-0.00000801,0.00002261,-0.00000649,0.00003809,-0.00001980
 ,-0.00001492,-0.00002449,-0.00000032,0.00000108,-0.00000215,-0.0000185
 7,-0.00000092,0.00000159,-0.00001122,-0.00000490,-0.00000047,-0.000050
 85,-0.00007789,-0.00002678,-0.00004377,-0.00004320,0.00007467,-0.01291
 614,-0.00333543,0.00036593,-0.00176354,0.00152827,-0.00175565,-0.05480
 927,-0.07154061,-0.04376142,0.00023645,0.00007058,0.00017419,0.0002263
 4,-0.00006037,-0.00014585,0.00071496,-0.00005357,0.00018877,0.01876568
 ,0.00820275,0.01402806,0.06724253,0.07190085,-0.00045588,0.00002681,-0
 .00095825,0.00085243,0.00135134,0.00073312,0.00009975,-0.00035479,0.00
 046841,-0.00031164,0.00001449,-0.00015735,-0.00001709,0.00003070,0.000
 01563,0.00000452,-0.00001351,0.00000003,-0.00000025,-0.00000561,-0.000
 00368,0.00000431,0.00000234,-0.00001176,0.00008963,-0.00004907,0.00018
 397,-0.00000905,-0.00001634,0.00000930,-0.00001053,0.00000955,-0.00002
 628,-0.00000335,-0.00001303,0.00001958,-0.00000265,-0.00000363,-0.0000
 0324,0.00001049,0.00000069,0.00001097,0.00000577,-0.00000462,0.0000032
 8,0.00009297,0.00002962,-0.00001839,0.00012110,0.00002277,-0.00015509,
 0.02131427,0.00921927,0.01402987,0.00215373,-0.00152328,0.00221621,-0.
 11211617,-0.04302236,-0.13685110,-0.00007607,-0.00016427,0.00002984,-0
 .00020151,0.00002023,-0.00043645,-0.00133092,-0.00088696,-0.00011327,-
 0.01243875,-0.00638722,-0.00996112,0.11603774,0.04596100,0.14146435,-0
 .00143824,0.00035648,0.00018655,0.00032357,-0.00421242,0.00280151,0.00
 007068,0.00056183,0.00019626,0.00062326,0.00072569,0.00095499,0.000017
 18,-0.00007028,-0.00004292,-0.00000859,0.00002298,-0.00000392,-0.00000
 970,0.00000188,0.00000258,0.00001966,-0.00003053,0.00002434,-0.0002047
 5,0.00004528,-0.00036797,0.00000183,0.00003842,-0.00003266,0.00002381,
 0.00000683,0.00004625,-0.00005635,-0.00009001,-0.00002774,0.00000364,-
 0.00000962,-0.00001921,-0.00004279,-0.00000905,0.00000856,-0.00003507,
 -0.00001719,-0.00000128,-0.00001343,-0.00026134,-0.00022226,-0.0003963
 4,0.00000653,0.00005550,-0.01638583,0.02213961,0.02050569,0.00046150,0
 .00146580,-0.00090867,-0.06890614,0.05424674,0.04082023,-0.00008983,0.
 00002713,-0.00024706,-0.00000039,-0.00065202,-0.00005999,0.00000138,-0
 .00029503,-0.00004748,-0.00285107,0.00644077,0.00572512,0.00812423,-0.
 01868369,-0.01381284,0.08076775,-0.00047182,0.00059154,-0.00033551,-0.
 00232276,-0.00310763,0.00151114,0.00228676,0.00052416,-0.00168693,-0.0
 0009906,0.00016060,0.00001176,-0.00001362,0.00000464,-0.00000876,0.000
 00317,-0.00000602,0.00000325,0.00000397,-0.00000104,0.00000062,-0.0000
 0771,0.00000669,0.00000012,0.00002776,-0.00002109,0.00005879,-0.000006
 33,-0.00000574,-0.00000002,-0.00002618,-0.00000170,-0.00002579,0.00000
 845,-0.00003333,0.00002723,0.00000137,-0.00000573,-0.00000527,0.000006
 28,-0.00000568,0.00000286,-0.00000418,-0.00000394,0.00000460,0.0000513
 7,-0.00004360,-0.00003376,-0.00005125,0.00005258,-0.00000722,-0.005512
 11,0.01029233,0.01069991,-0.00028428,0.00156826,0.00177983,0.06093534,
 -0.20597440,-0.11961461,0.00009491,0.00029062,-0.00006752,-0.00001072,
 0.00015654,-0.00072197,-0.00028073,-0.00027130,-0.00011539,0.00471309,
 -0.01472516,-0.01453317,0.00271303,-0.00665959,-0.00424411,-0.06175477
 ,0.21721801,0.00136221,-0.00006083,-0.00002991,-0.00112723,0.00482526,
 -0.00144982,-0.00076142,-0.00068053,0.00133979,-0.00049284,-0.00065158
 ,-0.00083690,-0.00001348,0.00006966,0.00004106,0.00000583,-0.00002199,
 0.00000111,0.00000713,-0.00000340,-0.00000385,-0.00001229,0.00001972,-
 0.00002150,0.00019271,-0.00005052,0.00035953,-0.00000545,-0.00003594,0
 .00003053,-0.00001125,0.00000070,-0.00003665,0.00003684,0.00008870,-0.
 00000011,-0.00000245,0.00000593,0.00001587,0.00003214,0.00000795,-0.00
 000652,0.00004071,0.00001326,0.00000047,0.00003221,0.00022488,0.000158
 70,0.00025409,-0.00000394,-0.00003471,0.01361245,-0.01415082,-0.014188
 85,0.00017110,-0.00115415,0.00057886,0.04289008,-0.11453384,-0.1375086
 4,-0.00013927,0.00005268,0.00028292,0.00009753,0.00053226,-0.00008457,
 -0.00018929,-0.00003298,-0.00038934,-0.00516106,0.01310600,0.01327840,
 0.00471457,-0.01486639,-0.01048853,-0.05553358,0.12729990,0.14899266\\
 0.00000344,0.00000112,-0.00000370,-0.00000011,-0.00000755,0.00000031,-
 0.00000348,0.00000309,0.00000311,0.,0.00000224,-0.00000370,-0.00000244
 ,0.00000069,0.00000408,-0.00000361,0.00000175,0.00000546,-0.00000228,-
 0.00000242,0.00000604,-0.00000230,-0.00000047,0.00000460,0.00000076,-0
 .00000207,0.00000833,-0.00000083,0.00000159,0.00000025,-0.00000062,0.0
 0000171,0.00000121,0.00000146,-0.00000540,-0.00000024,0.00000099,-0.00
 000523,0.00000310,0.00000163,-0.00000403,0.00000050,0.00000311,-0.0000
 0582,-0.00000029,-0.00000206,-0.00000506,-0.00000384,0.00000170,-0.000
 00463,0.00000460,0.00000030,0.00000345,-0.00000348,0.00000278,0.000005
 68,-0.00000348,-0.00000262,0.00000278,0.00000036,0.00000271,-0.0000003
 9,-0.00000509,0.00000137,0.00000274,-0.00000599,0.00000279,0.00000124,
 -0.00000547,-0.00000224,0.00000547,-0.00000026,0.00000063,0.00000327,-
 0.00000233,-0.00000110,0.00000625,-0.00000407\\\@


 ON INDUCTION, OR "WHY DO YOU BELIEVE THE SUN WILL RISE TOMORROW?":

 ... THE FARMER WHO HAS FED THE CHICKEN EVERY DAY THROUGHOUT ITS
 LIFE AT LAST WRINGS ITS NECK INSTEAD, SHOWING THAT MORE REFINED VIEWS
 AS TO THE UNIFORMITY OF NATURE WOULD HAVE BEEN USEFUL TO THE CHICKEN.

                               -- BERTRAND RUSSELL
 Job cpu time:       0 days  7 hours 59 minutes 57.0 seconds.
 Elapsed time:       0 days  0 hours 30 minutes  1.9 seconds.
 File lengths (MBytes):  RWF=    617 Int=      0 D2E=      0 Chk=     28 Scr=      1
 Normal termination of Gaussian 16 at Tue Feb 16 00:10:47 2021.
