 Entering Gaussian System, Link 0=g16
 Initial command:
 /apps/gaussian/16/A.03/g16/l1.exe "/beegfs/scratch/user/q/tla25/Gau-18956.inp" -scrdir="/beegfs/scratch/user/q/tla25/"
 Entering Link 1 = /apps/gaussian/16/A.03/g16/l1.exe PID=     18957.
  
 Copyright (c) 1988,1990,1992,1993,1995,1998,2003,2009,2016,
            Gaussian, Inc.  All Rights Reserved.
  
 This is part of the Gaussian(R) 16 program.  It is based on
 the Gaussian(R) 09 system (copyright 2009, Gaussian, Inc.),
 the Gaussian(R) 03 system (copyright 2003, Gaussian, Inc.),
 the Gaussian(R) 98 system (copyright 1998, Gaussian, Inc.),
 the Gaussian(R) 94 system (copyright 1995, Gaussian, Inc.),
 the Gaussian 92(TM) system (copyright 1992, Gaussian, Inc.),
 the Gaussian 90(TM) system (copyright 1990, Gaussian, Inc.),
 the Gaussian 88(TM) system (copyright 1988, Gaussian, Inc.),
 the Gaussian 86(TM) system (copyright 1986, Carnegie Mellon
 University), and the Gaussian 82(TM) system (copyright 1983,
 Carnegie Mellon University). Gaussian is a federally registered
 trademark of Gaussian, Inc.
  
 This software contains proprietary and confidential information,
 including trade secrets, belonging to Gaussian, Inc.
  
 This software is provided under written license and may be
 used, copied, transmitted, or stored only in accord with that
 written license.
  
 The following legend is applicable only to US Government
 contracts under FAR:
  
                    RESTRICTED RIGHTS LEGEND
  
 Use, reproduction and disclosure by the US Government is
 subject to restrictions as set forth in subparagraphs (a)
 and (c) of the Commercial Computer Software - Restricted
 Rights clause in FAR 52.227-19.
  
 Gaussian, Inc.
 340 Quinnipiac St., Bldg. 40, Wallingford CT 06492
  
  
 ---------------------------------------------------------------
 Warning -- This program may not be used in any manner that
 competes with the business of Gaussian, Inc. or will provide
 assistance to any competitor of Gaussian, Inc.  The licensee
 of this program is prohibited from giving any competitor of
 Gaussian, Inc. access to this program.  By using this program,
 the user acknowledges that Gaussian, Inc. is engaged in the
 business of creating and licensing software in the field of
 computational chemistry and represents and warrants to the
 licensee that it is not a competitor of Gaussian, Inc. and that
 it will not use this program in any manner prohibited above.
 ---------------------------------------------------------------
  

 Cite this work as:
 Gaussian 16, Revision A.03,
 M. J. Frisch, G. W. Trucks, H. B. Schlegel, G. E. Scuseria, 
 M. A. Robb, J. R. Cheeseman, G. Scalmani, V. Barone, 
 G. A. Petersson, H. Nakatsuji, X. Li, M. Caricato, A. V. Marenich, 
 J. Bloino, B. G. Janesko, R. Gomperts, B. Mennucci, H. P. Hratchian, 
 J. V. Ortiz, A. F. Izmaylov, J. L. Sonnenberg, D. Williams-Young, 
 F. Ding, F. Lipparini, F. Egidi, J. Goings, B. Peng, A. Petrone, 
 T. Henderson, D. Ranasinghe, V. G. Zakrzewski, J. Gao, N. Rega, 
 G. Zheng, W. Liang, M. Hada, M. Ehara, K. Toyota, R. Fukuda, 
 J. Hasegawa, M. Ishida, T. Nakajima, Y. Honda, O. Kitao, H. Nakai, 
 T. Vreven, K. Throssell, J. A. Montgomery, Jr., J. E. Peralta, 
 F. Ogliaro, M. J. Bearpark, J. J. Heyd, E. N. Brothers, K. N. Kudin, 
 V. N. Staroverov, T. A. Keith, R. Kobayashi, J. Normand, 
 K. Raghavachari, A. P. Rendell, J. C. Burant, S. S. Iyengar, 
 J. Tomasi, M. Cossi, J. M. Millam, M. Klene, C. Adamo, R. Cammi, 
 J. W. Ochterski, R. L. Martin, K. Morokuma, O. Farkas, 
 J. B. Foresman, and D. J. Fox, Gaussian, Inc., Wallingford CT, 2016.
 
 ******************************************
 Gaussian 16:  ES64L-G16RevA.03 25-Dec-2016
                17-Feb-2021 
 ******************************************
 %nprocshared=16
 Will use up to   16 processors via shared memory.
 %mem=48GB
 ----------------------------------------------------------------------
 # wB97XD def2tzvp, opt=(ts, noeigen, calcfc, maxcycles=70, maxstep=5),
  freq=noraman, scrf=(iefpcm, solvent=water)
 ----------------------------------------------------------------------
 1/5=1,6=70,8=5,10=4,11=1,18=20,26=3,38=1/1,3;
 2/9=110,12=2,17=6,18=5,40=1/2;
 3/5=44,7=101,11=2,25=1,30=1,70=2201,71=2,72=1,74=-58,140=1/1,2,3;
 4//1;
 5/5=2,38=5,53=1/2;
 8/6=4,10=90,11=11/1;
 11/6=1,8=1,9=11,15=111,16=1/1,2,10;
 10/6=1,13=1/2;
 6/7=2,8=2,9=2,10=2,28=1/1;
 7/10=1,18=20,25=1/1,2,3,16;
 1/5=1,6=70,8=5,10=4,11=1,18=20,26=3/3(2);
 2/9=110/2;
 99//99;
 2/9=110/2;
 3/5=44,7=101,11=2,25=1,30=1,70=2205,71=1,72=1,74=-58/1,2,3;
 4/5=5,16=3,69=1/1;
 5/5=2,38=5,53=1/2;
 7//1,2,3,16;
 1/5=1,6=70,8=5,11=1,18=20,26=3/3(-5);
 2/9=110/2;
 6/7=2,8=2,9=2,10=2,19=2,28=1/1;
 99/9=1/99;
 ------------------------
 2_iteration/TS-527-2.out
 ------------------------
 Symbolic Z-matrix:
 Charge =  0 Multiplicity = 1
 C                    -0.82442  -0.19413  -0.02558 
 C                     0.38328   0.61088   0.06367 
 O                     0.39225   1.78598   0.44076 
 C                    -2.07375   0.39156   0.00255 
 C                    -2.08842   0.44601   2.90455 
 H                    -1.77204   0.95494   3.8167 
 H                    -3.03059  -0.06657   3.09118 
 H                    -1.33078  -0.29453   2.64215 
 N                    -2.23934   1.35599   1.78541 
 H                    -3.07376   1.92511   1.84429 
 H                    -1.42225   1.94471   1.65291 
 C                    -3.3333   -0.42287   0.03394 
 H                    -3.22482  -1.25053   0.73495 
 H                    -4.18232   0.18857   0.33029 
 H                    -3.54005  -0.83558  -0.95401 
 Br                   -2.37729   2.02886  -1.05473 
 C                    -0.70843  -1.68242  -0.05584 
 C                    -0.1342   -2.39468   0.99962 
 C                    -0.00844  -3.77436   0.95069 
 C                    -0.46009  -4.47703  -0.15774 
 C                    -1.02507  -3.78663  -1.21988 
 C                    -1.13833  -2.40508  -1.17047 
 H                     0.22605  -1.85851   1.86933 
 H                     0.43915  -4.30245   1.78338 
 H                    -0.36652  -5.55495  -0.19537 
 H                    -1.37062  -4.32309  -2.09481 
 H                    -1.56292  -1.87145  -2.01193 
 N                     1.5431   -0.0477   -0.2798 
 C                     2.87491   0.35506  -0.1628 
 C                     3.28205   1.5823    0.36329 
 C                     4.63563   1.88052   0.44475 
 C                     5.59928   0.98438   0.01059 
 C                     5.19309  -0.23566  -0.51471 
 C                     3.84938  -0.54843  -0.60045 
 H                     1.41434  -0.98694  -0.61902 
 H                     2.54116   2.28867   0.69899 
 H                     4.93466   2.83675   0.85661 
 H                     6.65088   1.23069   0.07808 
 H                     5.92742  -0.9524   -0.86055 
 H                     3.54462  -1.50492  -1.01 
 
 Add virtual bond connecting atoms N9         and C4         Dist= 3.84D+00.
 Add virtual bond connecting atoms H11        and O3         Dist= 4.13D+00.

 GradGradGradGradGradGradGradGradGradGradGradGradGradGradGradGradGradGrad
 Berny optimization.
 Initialization pass.
                           ----------------------------
                           !    Initial Parameters    !
                           ! (Angstroms and Degrees)  !
 --------------------------                            --------------------------
 ! Name  Definition              Value          Derivative Info.                !
 --------------------------------------------------------------------------------
 ! R1    R(1,2)                  1.4541         calculate D2E/DX2 analytically  !
 ! R2    R(1,4)                  1.3801         calculate D2E/DX2 analytically  !
 ! R3    R(1,17)                 1.4931         calculate D2E/DX2 analytically  !
 ! R4    R(2,3)                  1.2342         calculate D2E/DX2 analytically  !
 ! R5    R(2,28)                 1.3773         calculate D2E/DX2 analytically  !
 ! R6    R(3,11)                 2.1879         calculate D2E/DX2 analytically  !
 ! R7    R(4,9)                  2.0337         calculate D2E/DX2 analytically  !
 ! R8    R(4,12)                 1.5002         calculate D2E/DX2 analytically  !
 ! R9    R(4,16)                 1.9725         calculate D2E/DX2 analytically  !
 ! R10   R(5,6)                  1.0914         calculate D2E/DX2 analytically  !
 ! R11   R(5,7)                  1.0887         calculate D2E/DX2 analytically  !
 ! R12   R(5,8)                  1.0915         calculate D2E/DX2 analytically  !
 ! R13   R(5,9)                  1.4503         calculate D2E/DX2 analytically  !
 ! R14   R(9,10)                 1.0117         calculate D2E/DX2 analytically  !
 ! R15   R(9,11)                 1.0158         calculate D2E/DX2 analytically  !
 ! R16   R(12,13)                1.09           calculate D2E/DX2 analytically  !
 ! R17   R(12,14)                1.0874         calculate D2E/DX2 analytically  !
 ! R18   R(12,15)                1.0905         calculate D2E/DX2 analytically  !
 ! R19   R(17,18)                1.3968         calculate D2E/DX2 analytically  !
 ! R20   R(17,22)                1.3962         calculate D2E/DX2 analytically  !
 ! R21   R(18,19)                1.3863         calculate D2E/DX2 analytically  !
 ! R22   R(18,23)                1.0834         calculate D2E/DX2 analytically  !
 ! R23   R(19,20)                1.3879         calculate D2E/DX2 analytically  !
 ! R24   R(19,24)                1.0829         calculate D2E/DX2 analytically  !
 ! R25   R(20,21)                1.3871         calculate D2E/DX2 analytically  !
 ! R26   R(20,25)                1.0826         calculate D2E/DX2 analytically  !
 ! R27   R(21,22)                1.3871         calculate D2E/DX2 analytically  !
 ! R28   R(21,26)                1.0829         calculate D2E/DX2 analytically  !
 ! R29   R(22,27)                1.0831         calculate D2E/DX2 analytically  !
 ! R30   R(28,29)                1.3963         calculate D2E/DX2 analytically  !
 ! R31   R(28,35)                1.0069         calculate D2E/DX2 analytically  !
 ! R32   R(29,30)                1.3959         calculate D2E/DX2 analytically  !
 ! R33   R(29,34)                1.3991         calculate D2E/DX2 analytically  !
 ! R34   R(30,31)                1.3884         calculate D2E/DX2 analytically  !
 ! R35   R(30,36)                1.0773         calculate D2E/DX2 analytically  !
 ! R36   R(31,32)                1.3857         calculate D2E/DX2 analytically  !
 ! R37   R(31,37)                1.0832         calculate D2E/DX2 analytically  !
 ! R38   R(32,33)                1.389          calculate D2E/DX2 analytically  !
 ! R39   R(32,38)                1.0822         calculate D2E/DX2 analytically  !
 ! R40   R(33,34)                1.3823         calculate D2E/DX2 analytically  !
 ! R41   R(33,39)                1.0828         calculate D2E/DX2 analytically  !
 ! R42   R(34,40)                1.0842         calculate D2E/DX2 analytically  !
 ! A1    A(2,1,4)              121.0404         calculate D2E/DX2 analytically  !
 ! A2    A(2,1,17)             119.2443         calculate D2E/DX2 analytically  !
 ! A3    A(4,1,17)             119.5875         calculate D2E/DX2 analytically  !
 ! A4    A(1,2,3)              123.4972         calculate D2E/DX2 analytically  !
 ! A5    A(1,2,28)             114.7948         calculate D2E/DX2 analytically  !
 ! A6    A(3,2,28)             121.6934         calculate D2E/DX2 analytically  !
 ! A7    A(2,3,11)             103.4342         calculate D2E/DX2 analytically  !
 ! A8    A(1,4,9)              107.0271         calculate D2E/DX2 analytically  !
 ! A9    A(1,4,12)             122.0093         calculate D2E/DX2 analytically  !
 ! A10   A(1,4,16)             118.7278         calculate D2E/DX2 analytically  !
 ! A11   A(9,4,12)              99.8304         calculate D2E/DX2 analytically  !
 ! A12   A(9,4,16)              93.654          calculate D2E/DX2 analytically  !
 ! A13   A(12,4,16)            109.4285         calculate D2E/DX2 analytically  !
 ! A14   A(6,5,7)              109.096          calculate D2E/DX2 analytically  !
 ! A15   A(6,5,8)              108.4268         calculate D2E/DX2 analytically  !
 ! A16   A(6,5,9)              112.4897         calculate D2E/DX2 analytically  !
 ! A17   A(7,5,8)              108.8141         calculate D2E/DX2 analytically  !
 ! A18   A(7,5,9)              109.7334         calculate D2E/DX2 analytically  !
 ! A19   A(8,5,9)              108.206          calculate D2E/DX2 analytically  !
 ! A20   A(4,9,5)              111.7438         calculate D2E/DX2 analytically  !
 ! A21   A(4,9,10)             112.6388         calculate D2E/DX2 analytically  !
 ! A22   A(4,9,11)              95.4512         calculate D2E/DX2 analytically  !
 ! A23   A(5,9,10)             113.1953         calculate D2E/DX2 analytically  !
 ! A24   A(5,9,11)             112.3714         calculate D2E/DX2 analytically  !
 ! A25   A(10,9,11)            110.1813         calculate D2E/DX2 analytically  !
 ! A26   A(3,11,9)             134.2141         calculate D2E/DX2 analytically  !
 ! A27   A(4,12,13)            110.0045         calculate D2E/DX2 analytically  !
 ! A28   A(4,12,14)            110.8519         calculate D2E/DX2 analytically  !
 ! A29   A(4,12,15)            110.2233         calculate D2E/DX2 analytically  !
 ! A30   A(13,12,14)           109.2306         calculate D2E/DX2 analytically  !
 ! A31   A(13,12,15)           108.309          calculate D2E/DX2 analytically  !
 ! A32   A(14,12,15)           108.1603         calculate D2E/DX2 analytically  !
 ! A33   A(1,17,18)            121.6614         calculate D2E/DX2 analytically  !
 ! A34   A(1,17,22)            120.542          calculate D2E/DX2 analytically  !
 ! A35   A(18,17,22)           117.7673         calculate D2E/DX2 analytically  !
 ! A36   A(17,18,19)           121.2066         calculate D2E/DX2 analytically  !
 ! A37   A(17,18,23)           119.403          calculate D2E/DX2 analytically  !
 ! A38   A(19,18,23)           119.3889         calculate D2E/DX2 analytically  !
 ! A39   A(18,19,20)           120.1679         calculate D2E/DX2 analytically  !
 ! A40   A(18,19,24)           119.7172         calculate D2E/DX2 analytically  !
 ! A41   A(20,19,24)           120.1142         calculate D2E/DX2 analytically  !
 ! A42   A(19,20,21)           119.478          calculate D2E/DX2 analytically  !
 ! A43   A(19,20,25)           120.2454         calculate D2E/DX2 analytically  !
 ! A44   A(21,20,25)           120.2756         calculate D2E/DX2 analytically  !
 ! A45   A(20,21,22)           120.1151         calculate D2E/DX2 analytically  !
 ! A46   A(20,21,26)           120.1372         calculate D2E/DX2 analytically  !
 ! A47   A(22,21,26)           119.7451         calculate D2E/DX2 analytically  !
 ! A48   A(17,22,21)           121.253          calculate D2E/DX2 analytically  !
 ! A49   A(17,22,27)           119.0721         calculate D2E/DX2 analytically  !
 ! A50   A(21,22,27)           119.6741         calculate D2E/DX2 analytically  !
 ! A51   A(2,28,29)            130.1206         calculate D2E/DX2 analytically  !
 ! A52   A(2,28,35)            114.9849         calculate D2E/DX2 analytically  !
 ! A53   A(29,28,35)           114.7888         calculate D2E/DX2 analytically  !
 ! A54   A(28,29,30)           124.2886         calculate D2E/DX2 analytically  !
 ! A55   A(28,29,34)           116.863          calculate D2E/DX2 analytically  !
 ! A56   A(30,29,34)           118.8474         calculate D2E/DX2 analytically  !
 ! A57   A(29,30,31)           119.6883         calculate D2E/DX2 analytically  !
 ! A58   A(29,30,36)           119.5578         calculate D2E/DX2 analytically  !
 ! A59   A(31,30,36)           120.7537         calculate D2E/DX2 analytically  !
 ! A60   A(30,31,32)           121.3777         calculate D2E/DX2 analytically  !
 ! A61   A(30,31,37)           118.7527         calculate D2E/DX2 analytically  !
 ! A62   A(32,31,37)           119.8695         calculate D2E/DX2 analytically  !
 ! A63   A(31,32,33)           118.8913         calculate D2E/DX2 analytically  !
 ! A64   A(31,32,38)           120.6001         calculate D2E/DX2 analytically  !
 ! A65   A(33,32,38)           120.5085         calculate D2E/DX2 analytically  !
 ! A66   A(32,33,34)           120.4283         calculate D2E/DX2 analytically  !
 ! A67   A(32,33,39)           120.2547         calculate D2E/DX2 analytically  !
 ! A68   A(34,33,39)           119.3169         calculate D2E/DX2 analytically  !
 ! A69   A(29,34,33)           120.7668         calculate D2E/DX2 analytically  !
 ! A70   A(29,34,40)           119.478          calculate D2E/DX2 analytically  !
 ! A71   A(33,34,40)           119.7551         calculate D2E/DX2 analytically  !
 ! D1    D(4,1,2,3)             15.562          calculate D2E/DX2 analytically  !
 ! D2    D(4,1,2,28)          -165.8121         calculate D2E/DX2 analytically  !
 ! D3    D(17,1,2,3)          -160.3105         calculate D2E/DX2 analytically  !
 ! D4    D(17,1,2,28)           18.3153         calculate D2E/DX2 analytically  !
 ! D5    D(2,1,4,9)            -60.7984         calculate D2E/DX2 analytically  !
 ! D6    D(2,1,4,12)          -174.5023         calculate D2E/DX2 analytically  !
 ! D7    D(2,1,4,16)            43.3164         calculate D2E/DX2 analytically  !
 ! D8    D(17,1,4,9)           115.0601         calculate D2E/DX2 analytically  !
 ! D9    D(17,1,4,12)            1.3563         calculate D2E/DX2 analytically  !
 ! D10   D(17,1,4,16)         -140.825          calculate D2E/DX2 analytically  !
 ! D11   D(2,1,17,18)           60.8331         calculate D2E/DX2 analytically  !
 ! D12   D(2,1,17,22)         -117.1559         calculate D2E/DX2 analytically  !
 ! D13   D(4,1,17,18)         -115.1003         calculate D2E/DX2 analytically  !
 ! D14   D(4,1,17,22)           66.9107         calculate D2E/DX2 analytically  !
 ! D15   D(1,2,3,11)            23.6747         calculate D2E/DX2 analytically  !
 ! D16   D(28,2,3,11)         -154.8592         calculate D2E/DX2 analytically  !
 ! D17   D(1,2,28,29)         -171.6027         calculate D2E/DX2 analytically  !
 ! D18   D(1,2,28,35)            4.4147         calculate D2E/DX2 analytically  !
 ! D19   D(3,2,28,29)            7.0505         calculate D2E/DX2 analytically  !
 ! D20   D(3,2,28,35)         -176.9321         calculate D2E/DX2 analytically  !
 ! D21   D(2,3,11,9)           -12.7818         calculate D2E/DX2 analytically  !
 ! D22   D(1,4,9,5)            -59.3148         calculate D2E/DX2 analytically  !
 ! D23   D(1,4,9,10)           171.9463         calculate D2E/DX2 analytically  !
 ! D24   D(1,4,9,11)            57.4088         calculate D2E/DX2 analytically  !
 ! D25   D(12,4,9,5)            68.6868         calculate D2E/DX2 analytically  !
 ! D26   D(12,4,9,10)          -60.0521         calculate D2E/DX2 analytically  !
 ! D27   D(12,4,9,11)         -174.5896         calculate D2E/DX2 analytically  !
 ! D28   D(16,4,9,5)           179.1338         calculate D2E/DX2 analytically  !
 ! D29   D(16,4,9,10)           50.3949         calculate D2E/DX2 analytically  !
 ! D30   D(16,4,9,11)          -64.1426         calculate D2E/DX2 analytically  !
 ! D31   D(1,4,12,13)           43.2317         calculate D2E/DX2 analytically  !
 ! D32   D(1,4,12,14)          164.146          calculate D2E/DX2 analytically  !
 ! D33   D(1,4,12,15)          -76.1345         calculate D2E/DX2 analytically  !
 ! D34   D(9,4,12,13)          -74.0772         calculate D2E/DX2 analytically  !
 ! D35   D(9,4,12,14)           46.8371         calculate D2E/DX2 analytically  !
 ! D36   D(9,4,12,15)          166.5566         calculate D2E/DX2 analytically  !
 ! D37   D(16,4,12,13)        -171.5296         calculate D2E/DX2 analytically  !
 ! D38   D(16,4,12,14)         -50.6153         calculate D2E/DX2 analytically  !
 ! D39   D(16,4,12,15)          69.1042         calculate D2E/DX2 analytically  !
 ! D40   D(6,5,9,4)            156.7462         calculate D2E/DX2 analytically  !
 ! D41   D(6,5,9,10)           -74.8098         calculate D2E/DX2 analytically  !
 ! D42   D(6,5,9,11)            50.7988         calculate D2E/DX2 analytically  !
 ! D43   D(7,5,9,4)            -81.6072         calculate D2E/DX2 analytically  !
 ! D44   D(7,5,9,10)            46.8368         calculate D2E/DX2 analytically  !
 ! D45   D(7,5,9,11)           172.4454         calculate D2E/DX2 analytically  !
 ! D46   D(8,5,9,4)             36.9903         calculate D2E/DX2 analytically  !
 ! D47   D(8,5,9,10)           165.4344         calculate D2E/DX2 analytically  !
 ! D48   D(8,5,9,11)           -68.9571         calculate D2E/DX2 analytically  !
 ! D49   D(4,9,11,3)           -23.5938         calculate D2E/DX2 analytically  !
 ! D50   D(5,9,11,3)            92.619          calculate D2E/DX2 analytically  !
 ! D51   D(10,9,11,3)         -140.1475         calculate D2E/DX2 analytically  !
 ! D52   D(1,17,18,19)        -178.7707         calculate D2E/DX2 analytically  !
 ! D53   D(1,17,18,23)           0.78           calculate D2E/DX2 analytically  !
 ! D54   D(22,17,18,19)         -0.7281         calculate D2E/DX2 analytically  !
 ! D55   D(22,17,18,23)        178.8227         calculate D2E/DX2 analytically  !
 ! D56   D(1,17,22,21)         179.3386         calculate D2E/DX2 analytically  !
 ! D57   D(1,17,22,27)          -0.3445         calculate D2E/DX2 analytically  !
 ! D58   D(18,17,22,21)          1.273          calculate D2E/DX2 analytically  !
 ! D59   D(18,17,22,27)       -178.4101         calculate D2E/DX2 analytically  !
 ! D60   D(17,18,19,20)         -0.2183         calculate D2E/DX2 analytically  !
 ! D61   D(17,18,19,24)       -179.9018         calculate D2E/DX2 analytically  !
 ! D62   D(23,18,19,20)       -179.7691         calculate D2E/DX2 analytically  !
 ! D63   D(23,18,19,24)          0.5474         calculate D2E/DX2 analytically  !
 ! D64   D(18,19,20,21)          0.6453         calculate D2E/DX2 analytically  !
 ! D65   D(18,19,20,25)       -179.7264         calculate D2E/DX2 analytically  !
 ! D66   D(24,19,20,21)       -179.6725         calculate D2E/DX2 analytically  !
 ! D67   D(24,19,20,25)         -0.0442         calculate D2E/DX2 analytically  !
 ! D68   D(19,20,21,22)         -0.1081         calculate D2E/DX2 analytically  !
 ! D69   D(19,20,21,26)        179.2982         calculate D2E/DX2 analytically  !
 ! D70   D(25,20,21,22)       -179.7362         calculate D2E/DX2 analytically  !
 ! D71   D(25,20,21,26)         -0.33           calculate D2E/DX2 analytically  !
 ! D72   D(20,21,22,17)         -0.8727         calculate D2E/DX2 analytically  !
 ! D73   D(20,21,22,27)        178.8085         calculate D2E/DX2 analytically  !
 ! D74   D(26,21,22,17)        179.7187         calculate D2E/DX2 analytically  !
 ! D75   D(26,21,22,27)         -0.6001         calculate D2E/DX2 analytically  !
 ! D76   D(2,28,29,30)           0.1425         calculate D2E/DX2 analytically  !
 ! D77   D(2,28,29,34)         179.7719         calculate D2E/DX2 analytically  !
 ! D78   D(35,28,29,30)       -175.8812         calculate D2E/DX2 analytically  !
 ! D79   D(35,28,29,34)          3.7482         calculate D2E/DX2 analytically  !
 ! D80   D(28,29,30,31)        179.484          calculate D2E/DX2 analytically  !
 ! D81   D(28,29,30,36)         -0.6924         calculate D2E/DX2 analytically  !
 ! D82   D(34,29,30,31)         -0.1386         calculate D2E/DX2 analytically  !
 ! D83   D(34,29,30,36)        179.685          calculate D2E/DX2 analytically  !
 ! D84   D(28,29,34,33)       -179.6216         calculate D2E/DX2 analytically  !
 ! D85   D(28,29,34,40)          0.2956         calculate D2E/DX2 analytically  !
 ! D86   D(30,29,34,33)          0.0288         calculate D2E/DX2 analytically  !
 ! D87   D(30,29,34,40)        179.9461         calculate D2E/DX2 analytically  !
 ! D88   D(29,30,31,32)          0.1502         calculate D2E/DX2 analytically  !
 ! D89   D(29,30,31,37)       -179.9298         calculate D2E/DX2 analytically  !
 ! D90   D(36,30,31,32)       -179.6712         calculate D2E/DX2 analytically  !
 ! D91   D(36,30,31,37)          0.2488         calculate D2E/DX2 analytically  !
 ! D92   D(30,31,32,33)         -0.0478         calculate D2E/DX2 analytically  !
 ! D93   D(30,31,32,38)        179.8714         calculate D2E/DX2 analytically  !
 ! D94   D(37,31,32,33)       -179.9669         calculate D2E/DX2 analytically  !
 ! D95   D(37,31,32,38)         -0.0477         calculate D2E/DX2 analytically  !
 ! D96   D(31,32,33,34)         -0.0644         calculate D2E/DX2 analytically  !
 ! D97   D(31,32,33,39)       -179.9994         calculate D2E/DX2 analytically  !
 ! D98   D(38,32,33,34)       -179.9837         calculate D2E/DX2 analytically  !
 ! D99   D(38,32,33,39)          0.0814         calculate D2E/DX2 analytically  !
 ! D100  D(32,33,34,29)          0.0736         calculate D2E/DX2 analytically  !
 ! D101  D(32,33,34,40)       -179.8434         calculate D2E/DX2 analytically  !
 ! D102  D(39,33,34,29)       -179.9908         calculate D2E/DX2 analytically  !
 ! D103  D(39,33,34,40)          0.0922         calculate D2E/DX2 analytically  !
 --------------------------------------------------------------------------------
 Trust Radius=5.00D-02 FncErr=1.00D-07 GrdErr=1.00D-06 EigMax=2.50D+02 EigMin=1.00D-04
 Number of steps in this run=     70 maximum allowed number of steps=    240.
 Search for a saddle point of order  1.
 GradGradGradGradGradGradGradGradGradGradGradGradGradGradGradGradGradGrad

                          Input orientation:                          
 ---------------------------------------------------------------------
 Center     Atomic      Atomic             Coordinates (Angstroms)
 Number     Number       Type             X           Y           Z
 ---------------------------------------------------------------------
      1          6           0       -0.824420   -0.194130   -0.025580
      2          6           0        0.383280    0.610880    0.063670
      3          8           0        0.392250    1.785980    0.440760
      4          6           0       -2.073750    0.391560    0.002550
      5          6           0       -2.088420    0.446010    2.904550
      6          1           0       -1.772040    0.954940    3.816700
      7          1           0       -3.030590   -0.066570    3.091180
      8          1           0       -1.330780   -0.294530    2.642150
      9          7           0       -2.239340    1.355990    1.785410
     10          1           0       -3.073760    1.925110    1.844290
     11          1           0       -1.422250    1.944710    1.652910
     12          6           0       -3.333300   -0.422870    0.033940
     13          1           0       -3.224820   -1.250530    0.734950
     14          1           0       -4.182320    0.188570    0.330290
     15          1           0       -3.540050   -0.835580   -0.954010
     16         35           0       -2.377290    2.028860   -1.054730
     17          6           0       -0.708430   -1.682420   -0.055840
     18          6           0       -0.134200   -2.394680    0.999620
     19          6           0       -0.008440   -3.774360    0.950690
     20          6           0       -0.460090   -4.477030   -0.157740
     21          6           0       -1.025070   -3.786630   -1.219880
     22          6           0       -1.138330   -2.405080   -1.170470
     23          1           0        0.226050   -1.858510    1.869330
     24          1           0        0.439150   -4.302450    1.783380
     25          1           0       -0.366520   -5.554950   -0.195370
     26          1           0       -1.370620   -4.323090   -2.094810
     27          1           0       -1.562920   -1.871450   -2.011930
     28          7           0        1.543100   -0.047700   -0.279800
     29          6           0        2.874910    0.355060   -0.162800
     30          6           0        3.282050    1.582300    0.363290
     31          6           0        4.635630    1.880520    0.444750
     32          6           0        5.599280    0.984380    0.010590
     33          6           0        5.193090   -0.235660   -0.514710
     34          6           0        3.849380   -0.548430   -0.600450
     35          1           0        1.414340   -0.986940   -0.619020
     36          1           0        2.541160    2.288670    0.698990
     37          1           0        4.934660    2.836750    0.856610
     38          1           0        6.650880    1.230690    0.078080
     39          1           0        5.927420   -0.952400   -0.860550
     40          1           0        3.544620   -1.504920   -1.010000
 ---------------------------------------------------------------------
                    Distance matrix (angstroms):
                    1          2          3          4          5
     1  C    0.000000
     2  C    1.454148   0.000000
     3  O    2.370357   1.234155   0.000000
     4  C    1.380090   2.467556   2.866634   0.000000
     5  C    3.254710   3.769228   3.744263   2.902548   0.000000
     6  H    4.120857   4.341545   4.095333   3.867320   1.091386
     7  H    3.820687   4.612945   4.708769   3.265741   1.088693
     8  H    2.717216   3.225884   3.484749   2.826696   1.091454
     9  N    2.772103   3.224549   2.986342   2.033749   1.450281
    10  H    3.612080   4.104745   3.741989   2.596883   2.069489
    11  H    2.783768   2.750404   2.187902   2.358053   2.063126
    12  C    2.519989   3.857783   4.350200   1.500249   3.247319
    13  H    2.730624   4.115076   4.731822   2.134908   2.979399
    14  H    3.398322   4.592835   4.846712   2.143522   3.328289
    15  H    2.940763   4.303538   4.927570   2.137970   4.317197
    16  Br   2.900386   3.298823   3.156871   1.972493   4.273729
    17  C    1.493110   2.542703   3.672589   2.483727   3.898525
    18  C    2.523858   3.190169   4.250576   3.538239   3.939195
    19  C    3.799602   4.491167   5.598032   4.745457   5.094645
    20  C    4.300399   5.162085   6.349014   5.131546   6.022076
    21  C    3.791130   4.792603   5.985023   4.477872   6.004738
    22  C    2.509504   3.596445   4.743809   3.173670   5.063316
    23  H    2.732093   3.063171   3.918002   3.719780   3.426261
    24  H    4.663393   5.205894   6.234886   5.614245   5.494862
    25  H    5.383019   6.216652   7.407405   6.189894   6.970363
    26  H    4.650630   5.663856   6.845258   5.207805   6.946449
    27  H    2.702660   3.775947   4.818213   3.072506   5.460636
    28  N    2.385628   1.377273   2.281676   3.654350   4.855077
    29  C    3.742390   2.514946   2.928381   4.951556   5.835371
    30  C    4.491104   3.071856   2.898005   5.498417   6.049058
    31  C    5.859823   4.454176   4.244435   6.886822   7.302142
    32  C    6.531012   5.229625   5.285903   7.695901   8.231985
    33  C    6.037499   4.917868   5.296038   7.312177   8.073190
    34  C    4.722331   3.714688   4.299458   6.027492   6.966449
    35  H    2.448012   2.020440   3.139568   3.801761   5.170901
    36  H    4.244576   2.806253   2.221980   5.038001   5.449119
    37  H    6.567457   5.128188   4.680869   7.471692   7.696320
    38  H    7.610583   6.298189   6.293674   8.765216   9.218461
    39  H    6.845399   5.833997   6.311120   8.159037   8.965780
    40  H    4.666451   3.952651   4.782485   6.015644   7.131688
                    6          7          8          9         10
     6  H    0.000000
     7  H    1.775897   0.000000
     8  H    1.770721   1.772836   0.000000
     9  N    2.122581   2.086813   2.069710   0.000000
    10  H    2.554624   2.350189   2.932808   1.011742   0.000000
    11  H    2.404992   2.949682   2.449726   1.015767   1.662677
    12  C    4.318005   3.092782   3.290793   2.725571   2.976195
    13  H    4.058553   2.644108   2.852847   2.978017   3.367216
    14  H    4.307183   3.002348   3.702616   2.693588   2.556692
    15  H    5.393653   4.149035   4.255112   3.741557   3.958449
    16  Br   5.024984   4.691076   4.490016   2.922016   2.983312
    17  C    4.804529   4.231682   3.097210   3.868569   4.713762
    18  C    4.673159   4.264246   2.922386   4.372254   5.292926
    19  C    5.804358   5.240496   4.088867   5.656338   6.532891
    20  C    6.857382   6.051042   5.107915   6.400444   7.199083
    21  C    6.957556   6.037068   5.215697   6.078878   6.797812
    22  C    6.046750   5.216410   4.362056   4.908676   5.620072
    23  H    3.962337   3.912757   2.338162   4.051938   5.020473
    24  H    6.055072   5.629575   4.464702   6.260372   7.150297
    25  H    7.775015   6.929718   6.054200   7.429134   8.212226
    26  H    7.935029   6.911437   6.218494   6.932729   7.580053
    27  H    6.481137   5.608331   4.919454   5.029285   5.618446
    28  N    5.364397   5.681769   4.105838   4.532360   5.451526
    29  C    6.147391   6.755819   5.096817   5.563536   6.471487
    30  C    6.153328   7.071745   5.476668   5.706084   6.535075
    31  C    7.299656   8.340604   6.719930   7.024081   7.835521
    32  C    8.296005   9.223296   7.522397   8.045623   8.914542
    33  C    8.288044   8.981088   7.247766   7.941342   8.864232
    34  C    7.305594   7.822679   6.116615   6.811142   7.747582
    35  H    5.796510   5.862599   4.318605   4.961853   5.889904
    36  H    5.486588   6.504931   5.043879   4.990329   5.742057
    37  H    7.568564   8.767427   7.228334   7.383874   8.120430
    38  H    9.219485  10.222158   8.521012   9.053546   9.908095
    39  H    9.208491   9.830911   8.085986   8.889642   9.829418
    40  H    7.590443   7.881746   6.210698   7.032305   7.982170
                   11         12         13         14         15
    11  H    0.000000
    12  C    3.446536   0.000000
    13  H    3.781728   1.090048   0.000000
    14  H    3.528645   1.087436   1.775265   0.000000
    15  H    4.360174   1.090468   1.767524   1.763752   0.000000
    16  Br   2.872368   2.847830   3.830882   2.926274   3.093085
    17  C    4.072522   2.912811   2.672844   3.964544   3.089000
    18  C    4.573420   3.880053   3.306216   4.848552   4.224604
    19  C    5.932936   4.809117   4.094064   5.788867   4.973588
    20  C    6.741139   4.972755   4.341766   5.988405   4.835324
    21  C    6.423312   4.267888   3.884851   5.307869   3.886452
    22  C    5.193530   3.193376   3.052385   4.271437   2.877229
    23  H    4.150688   4.254256   3.683064   5.098324   4.816757
    24  H    6.519880   5.687096   4.882427   6.605961   5.945294
    25  H    7.795871   5.932336   5.250086   6.915538   5.737533
    26  H    7.302971   4.857510   4.570145   5.843102   4.262696
    27  H    5.292818   3.068911   3.269985   4.073197   2.470074
    28  N    4.061818   4.900863   5.020914   5.762679   5.187844
    29  C    4.928425   6.259852   6.371074   7.076394   6.572317
    30  C    4.891309   6.920407   7.106505   7.593444   7.356798
    31  C    6.177514   8.305312   8.466071   8.979534   8.727856
    32  C    7.274705   9.042781   9.131498   9.819125   9.368568
    33  C    7.294883   8.546075   8.570462   9.422967   8.764737
    34  C    6.251677   7.211734   7.233294   8.118969   7.403454
    35  H    4.669313   4.825414   4.839888   5.797035   4.968008
    36  H    4.091075   6.504154   6.765630   7.053477   7.033809
    37  H    6.468395   8.925305   9.126761   9.508375   9.411964
    38  H    8.256231  10.120280  10.203792  10.886131  10.449389
    39  H    8.290258   9.318876   9.295052  10.243376   9.468652
    40  H    6.607635   7.040343   6.995347   8.023085   7.116439
                   16         17         18         19         20
    16  Br   0.000000
    17  C    4.190045   0.000000
    18  C    5.368381   1.396800   0.000000
    19  C    6.581073   2.424727   1.386264   0.000000
    20  C    6.841553   2.807472   2.404552   1.387930   0.000000
    21  C    5.972914   2.425479   2.767193   2.396886   1.387082
    22  C    4.605241   1.396228   2.391166   2.766026   2.403874
    23  H    5.517169   2.147217   1.083353   2.137608   3.381782
    24  H    7.488170   3.400622   2.140700   1.082861   2.146406
    25  H    7.892773   3.890098   3.386633   2.147598   1.082628
    26  H    6.514785   3.401328   3.850064   3.381081   2.145927
    27  H    4.097786   2.142936   3.374084   3.848973   3.382795
    28  N    4.503563   2.791389   3.155720   4.220116   4.862780
    29  C    5.584152   4.123480   4.238754   5.158069   5.871230
    30  C    5.851352   5.172813   5.281292   6.313966   7.140768
    31  C    7.172970   6.442368   6.429346   7.334918   8.169933
    32  C    8.114895   6.848609   6.728226   7.414575   8.159124
    33  C    7.920248   6.093572   5.944290   6.459544   7.076376
    34  C    6.754274   4.728231   4.673090   5.262645   5.848198
    35  H    4.864293   2.303696   2.645695   3.501143   3.988357
    36  H    5.228211   5.186440   5.402009   6.582108   7.450918
    37  H    7.600692   7.286970   7.285716   8.255293   9.144595
    38  H    9.133903   7.916034   7.747894   8.376068   9.121380
    39  H    8.825748   6.724209   6.502587   6.817513   7.329205
    40  H    6.896276   4.362380   4.285319   4.649613   5.059396
                   21         22         23         24         25
    21  C    0.000000
    22  C    1.387065   0.000000
    23  H    3.850476   3.376486   0.000000
    24  H    3.380766   3.848855   2.454718   0.000000
    25  H    2.147153   3.386472   4.275254   2.476552   0.000000
    26  H    1.082911   2.141758   4.933347   4.279726   2.476604
    27  H    2.141154   1.083094   4.273729   4.931777   4.277784
    28  N    4.632369   3.679755   3.103613   4.855751   5.829544
    29  C    5.786265   4.973919   4.005734   5.604725   6.740634
    30  C    7.062798   6.147469   4.842155   6.687976   8.035204
    31  C    8.181143   7.369798   5.954340   7.591541   8.984290
    32  C    8.255823   7.634051   6.356771   7.597388   8.854153
    33  C    7.195288   6.724826   5.743586   6.664829   7.701045
    34  C    5.884717   5.352506   4.576532   5.604015   6.557678
    35  H    3.761651   2.971757   2.891981   4.208934   4.921144
    36  H    7.301324   6.250185   4.891680   7.002657   8.412898
    37  H    9.148735   8.274481   6.726223   8.487443   9.981473
    38  H    9.261663   8.686167   7.350522   8.491718   9.765428
    39  H    7.516588   7.220191   6.385836   6.952288   7.825574
    40  H    5.111978   4.771379   4.407774   5.027235   5.688882
                   26         27         28         29         30
    26  H    0.000000
    27  H    2.460566   0.000000
    28  N    5.482972   3.996711   0.000000
    29  C    6.606230   5.298204   1.396289   0.000000
    30  C    7.909692   6.406543   2.468686   1.395941   0.000000
    31  C    9.000510   7.650789   3.715743   2.407546   1.388434
    32  C    9.010075   7.971415   4.195487   2.801482   2.418979
    33  C    7.892154   7.110636   3.662368   2.418005   2.779917
    34  C    6.612834   5.747665   2.381696   1.399080   2.406381
    35  H    4.589538   3.403914   1.006887   2.035280   3.324796
    36  H    8.174516   6.441984   2.722642   2.143110   1.077298
    37  H    9.986528   8.521397   4.595015   3.382389   2.132634
    38  H    9.995518   9.025404   5.277478   3.883645   3.399116
    39  H    8.133040   7.633841   4.514201   3.393247   3.862703
    40  H    5.768750   5.217775   2.581233   2.150764   3.389070
                   31         32         33         34         35
    31  C    0.000000
    32  C    1.385707   0.000000
    33  C    2.389465   1.389039   0.000000
    34  C    2.758701   2.405208   1.382293   0.000000
    35  H    4.441919   4.668644   3.854122   2.474279   0.000000
    36  H    2.148960   3.395168   3.857207   3.383655   3.706278
    37  H    1.083247   2.142135   3.374464   3.841914   5.402846
    38  H    2.148944   1.082167   2.150984   3.387340   5.729327
    39  H    3.376087   2.148878   1.082849   2.132861   4.519670
    40  H    3.842890   3.385239   2.138641   1.084197   2.226940
                   36         37         38         39         40
    36  H    0.000000
    37  H    2.460504   0.000000
    38  H    4.288898   2.476075   0.000000
    39  H    4.939985   4.276899   2.484009   0.000000
    40  H    4.280059   4.926108   4.279758   2.450581   0.000000
 Stoichiometry    C17H19BrN2O
 Framework group  C1[X(C17H19BrN2O)]
 Deg. of freedom   114
 Full point group                 C1      NOp   1
 Largest Abelian subgroup         C1      NOp   1
 Largest concise Abelian subgroup C1      NOp   1
                         Standard orientation:                         
 ---------------------------------------------------------------------
 Center     Atomic      Atomic             Coordinates (Angstroms)
 Number     Number       Type             X           Y           Z
 ---------------------------------------------------------------------
      1          6           0        0.824419    0.194130   -0.025580
      2          6           0       -0.383281   -0.610880    0.063670
      3          8           0       -0.392250   -1.785980    0.440760
      4          6           0        2.073749   -0.391559    0.002550
      5          6           0        2.088419   -0.446009    2.904550
      6          1           0        1.772039   -0.954939    3.816700
      7          1           0        3.030589    0.066572    3.091180
      8          1           0        1.330779    0.294531    2.642150
      9          7           0        2.239340   -1.355989    1.785410
     10          1           0        3.073760   -1.925108    1.844290
     11          1           0        1.422250   -1.944709    1.652910
     12          6           0        3.333299    0.422872    0.033940
     13          1           0        3.224818    1.250532    0.734950
     14          1           0        4.182319   -0.188568    0.330290
     15          1           0        3.540048    0.835582   -0.954010
     16         35           0        2.377290   -2.028859   -1.054730
     17          6           0        0.708428    1.682420   -0.055840
     18          6           0        0.134198    2.394680    0.999620
     19          6           0        0.008437    3.774360    0.950690
     20          6           0        0.460087    4.477030   -0.157740
     21          6           0        1.025067    3.786631   -1.219880
     22          6           0        1.138328    2.405081   -1.170470
     23          1           0       -0.226052    1.858510    1.869330
     24          1           0       -0.439153    4.302450    1.783380
     25          1           0        0.366516    5.554950   -0.195370
     26          1           0        1.370617    4.323091   -2.094810
     27          1           0        1.562918    1.871451   -2.011930
     28          7           0       -1.543101    0.047699   -0.279800
     29          6           0       -2.874911   -0.355061   -0.162800
     30          6           0       -3.282050   -1.582302    0.363290
     31          6           0       -4.635630   -1.880522    0.444750
     32          6           0       -5.599281   -0.984383    0.010590
     33          6           0       -5.193091    0.235658   -0.514710
     34          6           0       -3.849381    0.548428   -0.600450
     35          1           0       -1.414342    0.986939   -0.619020
     36          1           0       -2.541160   -2.288671    0.698990
     37          1           0       -4.934660   -2.836752    0.856610
     38          1           0       -6.650881   -1.230693    0.078080
     39          1           0       -5.927422    0.952397   -0.860550
     40          1           0       -3.544622    1.504918   -1.010000
 ---------------------------------------------------------------------
 Rotational constants (GHZ):           0.2937496           0.1829823           0.1344320
 Standard basis: def2TZVP (5D, 7F)
 There are   889 symmetry adapted cartesian basis functions of A   symmetry.
 There are   782 symmetry adapted basis functions of A   symmetry.
   782 basis functions,  1286 primitive gaussians,   889 cartesian basis functions
    89 alpha electrons       89 beta electrons
       nuclear repulsion energy      2090.0109509170 Hartrees.
 NAtoms=   40 NActive=   40 NUniq=   40 SFac= 1.00D+00 NAtFMM=   60 NAOKFM=F Big=F
 Integral buffers will be    131072 words long.
 Raffenetti 2 integral format.
 Two-electron integral symmetry is turned on.
 Nuclear repulsion after empirical dispersion term =     2089.9778068730 Hartrees.
 Force inversion solution in PCM.
 ------------------------------------------------------------------------------
 Polarizable Continuum Model (PCM)
 =================================
 Model                : PCM.
 Atomic radii         : UFF (Universal Force Field).
 Polarization charges : Total charges.
 Charge compensation  : None.
 Solution method      : Matrix inversion.
 Cavity type          : Scaled VdW (van der Waals Surface) (Alpha=1.100).
 Cavity algorithm     : GePol (No added spheres)
                        Default sphere list used, NSphG=   40.
                        Lebedev-Laikov grids with approx.  5.0 points / Ang**2.
                        Smoothing algorithm: York/Karplus (Gamma=1.0000).
                        Polarization charges: spherical gaussians, with
                                              point-specific exponents (IZeta= 3).
                        Self-potential: point-specific (ISelfS= 7).
                        Self-field    : sphere-specific E.n sum rule (ISelfD= 2).
 1st derivatives      : Analytical E(r).r(x)/FMM algorithm (CHGder, D1EAlg=3).
                        Cavity 1st derivative terms included.
 2nd derivatives      : Analytical E(r).r(xy)/FMM algorithm (CHGder, D2EAlg=3).
                        Cavity 2nd derivative terms included.
 Solvent              : Water, Eps=  78.355300 Eps(inf)=   1.777849
 ------------------------------------------------------------------------------
 One-electron integrals computed using PRISM.
   1 Symmetry operations used in ECPInt.
 ECPInt:  NShTT=   48828 NPrTT=  153744 LenC2=   42827 LenP2D=   94505.
 LDataN:  DoStor=T MaxTD1= 6 Len=  172
 NBasis=   782 RedAO= T EigKep=  6.77D-06  NBF=   782
 NBsUse=   782 1.00D-06 EigRej= -1.00D+00 NBFU=   782
 ExpMin= 9.52D-02 ExpMax= 5.65D+05 ExpMxC= 5.46D+03 IAcc=3 IRadAn=         5 AccDes= 0.00D+00
 Harris functional with IExCor= 4639 and IRadAn=       5 diagonalized for initial guess.
 HarFok:  IExCor= 4639 AccDes= 0.00D+00 IRadAn=         5 IDoV= 1 UseB2=F ITyADJ=14
 ICtDFT=  3500011 ScaDFX=  1.000000  1.000000  1.000000  1.000000
 FoFCou: FMM=F IPFlag=           0 FMFlag=      100000 FMFlg1=           0
         NFxFlg=           0 DoJE=T BraDBF=F KetDBF=T FulRan=T
         wScrn=  0.000000 ICntrl=       500 IOpCl=  0 I1Cent=   200000004 NGrid=           0
         NMat0=    1 NMatS0=      1 NMatT0=    0 NMatD0=    1 NMtDS0=    0 NMtDT0=    0
 Petite list used in FoFCou.
 Requested convergence on RMS density matrix=1.00D-08 within 128 cycles.
 Requested convergence on MAX density matrix=1.00D-06.
 Requested convergence on             energy=1.00D-06.
 No special actions if energy rises.
 Inv3:  Mode=1 IEnd=    26213808.
 Iteration    1 A*A^-1 deviation from unit magnitude is 8.88D-15 for   2952.
 Iteration    1 A*A^-1 deviation from orthogonality  is 3.61D-15 for   2939   2616.
 Iteration    1 A^-1*A deviation from unit magnitude is 9.10D-15 for   2952.
 Iteration    1 A^-1*A deviation from orthogonality  is 1.65D-15 for   1561   1395.
 Error on total polarization charges =  0.01915
 SCF Done:  E(RwB97XD) =  -3418.20740034     A.U. after   14 cycles
            NFock= 14  Conv=0.81D-08     -V/T= 2.0023
 DoSCS=F DFT=T ScalE2(SS,OS)=  1.000000  1.000000
 Range of M.O.s used for correlation:     1   782
 NBasis=   782 NAE=    89 NBE=    89 NFC=     0 NFV=     0
 NROrb=    782 NOA=    89 NOB=    89 NVA=   693 NVB=   693

 **** Warning!!: The largest alpha MO coefficient is  0.52277740D+02

   1 Symmetry operations used in ECPInt.
 ECPInt:  NShTT=   48828 NPrTT=  153744 LenC2=   42827 LenP2D=   94505.
 LDataN:  DoStor=T MaxTD1= 7 Len=  274
 Number of processors reduced to  11 by ecpmxn.
 Symmetrizing basis deriv contribution to polar:
 IMax=3 JMax=2 DiffMx= 0.00D+00
 G2DrvN: will do    41 centers at a time, making    1 passes.
 Calling FoFCou, ICntrl=  3107 FMM=F I1Cent=   0 AccDes= 0.00D+00.
 NEqPCM:  Using equilibrium solvation (IEInf=0, Eps=  78.3553, EpsInf=   1.7778)
 G2PCM: DoFxE=T DoFxN=T DoGrad=T DoDP/DQ/DG/TGxP=FFFF NFrqRd=   0 IEInf=0 SqF1=F DoCFld=F IF1Alg=4.
 End of G2Drv F.D. properties file   721 does not exist.
 End of G2Drv F.D. properties file   722 does not exist.
 End of G2Drv F.D. properties file   788 does not exist.
          IDoAtm=1111111111111111111111111111111111111111
 NEqPCM:  Using equilibrium solvation (IEInf=0, Eps=  78.3553, EpsInf=   1.7778)
          Differentiating once with respect to nuclear coordinates.
 CalDSu exits because no D1Ps are significant.
          There are   123 degrees of freedom in the 1st order CPHF.  IDoFFX=6 NUNeed=     0.
    117 vectors produced by pass  0 Test12= 6.17D-14 1.00D-09 XBig12= 1.26D-01 1.16D-01.
 AX will form   117 AO Fock derivatives at one time.
    117 vectors produced by pass  1 Test12= 6.17D-14 1.00D-09 XBig12= 3.12D-02 3.28D-02.
    117 vectors produced by pass  2 Test12= 6.17D-14 1.00D-09 XBig12= 8.42D-04 3.92D-03.
    117 vectors produced by pass  3 Test12= 6.17D-14 1.00D-09 XBig12= 1.15D-05 4.25D-04.
    117 vectors produced by pass  4 Test12= 6.17D-14 1.00D-09 XBig12= 1.24D-07 3.01D-05.
    117 vectors produced by pass  5 Test12= 6.17D-14 1.00D-09 XBig12= 1.02D-09 2.50D-06.
    117 vectors produced by pass  6 Test12= 6.17D-14 1.00D-09 XBig12= 7.37D-12 2.20D-07.
     59 vectors produced by pass  7 Test12= 6.17D-14 1.00D-09 XBig12= 6.06D-14 1.63D-08.
     10 vectors produced by pass  8 Test12= 6.17D-14 1.00D-09 XBig12= 1.41D-14 9.18D-09.
      7 vectors produced by pass  9 Test12= 6.17D-14 1.00D-09 XBig12= 2.26D-14 1.49D-08.
      4 vectors produced by pass 10 Test12= 6.17D-14 1.00D-09 XBig12= 3.77D-15 5.44D-09.
      4 vectors produced by pass 11 Test12= 6.17D-14 1.00D-09 XBig12= 1.47D-15 2.75D-09.
      4 vectors produced by pass 12 Test12= 6.17D-14 1.00D-09 XBig12= 3.61D-15 3.72D-09.
      2 vectors produced by pass 13 Test12= 6.17D-14 1.00D-09 XBig12= 8.10D-16 2.05D-09.
 InvSVY:  IOpt=1 It=  1 EMax= 6.66D-16
 Solved reduced A of dimension   909 with   123 vectors.
 End of Minotr F.D. properties file   721 does not exist.
 End of Minotr F.D. properties file   722 does not exist.
 End of Minotr F.D. properties file   788 does not exist.

 **********************************************************************

            Population analysis using the SCF density.

 **********************************************************************

 Orbital symmetries:
       Occupied  (A) (A) (A) (A) (A) (A) (A) (A) (A) (A) (A) (A)
                 (A) (A) (A) (A) (A) (A) (A) (A) (A) (A) (A) (A)
                 (A) (A) (A) (A) (A) (A) (A) (A) (A) (A) (A) (A)
                 (A) (A) (A) (A) (A) (A) (A) (A) (A) (A) (A) (A)
                 (A) (A) (A) (A) (A) (A) (A) (A) (A) (A) (A) (A)
                 (A) (A) (A) (A) (A) (A) (A) (A) (A) (A) (A) (A)
                 (A) (A) (A) (A) (A) (A) (A) (A) (A) (A) (A) (A)
                 (A) (A) (A) (A) (A)
       Virtual   (A) (A) (A) (A) (A) (A) (A) (A) (A) (A) (A) (A)
                 (A) (A) (A) (A) (A) (A) (A) (A) (A) (A) (A) (A)
                 (A) (A) (A) (A) (A) (A) (A) (A) (A) (A) (A) (A)
                 (A) (A) (A) (A) (A) (A) (A) (A) (A) (A) (A) (A)
                 (A) (A) (A) (A) (A) (A) (A) (A) (A) (A) (A) (A)
                 (A) (A) (A) (A) (A) (A) (A) (A) (A) (A) (A) (A)
                 (A) (A) (A) (A) (A) (A) (A) (A) (A) (A) (A) (A)
                 (A) (A) (A) (A) (A) (A) (A) (A) (A) (A) (A) (A)
                 (A) (A) (A) (A) (A) (A) (A) (A) (A) (A) (A) (A)
                 (A) (A) (A) (A) (A) (A) (A) (A) (A) (A) (A) (A)
                 (A) (A) (A) (A) (A) (A) (A) (A) (A) (A) (A) (A)
                 (A) (A) (A) (A) (A) (A) (A) (A) (A) (A) (A) (A)
                 (A) (A) (A) (A) (A) (A) (A) (A) (A) (A) (A) (A)
                 (A) (A) (A) (A) (A) (A) (A) (A) (A) (A) (A) (A)
                 (A) (A) (A) (A) (A) (A) (A) (A) (A) (A) (A) (A)
                 (A) (A) (A) (A) (A) (A) (A) (A) (A) (A) (A) (A)
                 (A) (A) (A) (A) (A) (A) (A) (A) (A) (A) (A) (A)
                 (A) (A) (A) (A) (A) (A) (A) (A) (A) (A) (A) (A)
                 (A) (A) (A) (A) (A) (A) (A) (A) (A) (A) (A) (A)
                 (A) (A) (A) (A) (A) (A) (A) (A) (A) (A) (A) (A)
                 (A) (A) (A) (A) (A) (A) (A) (A) (A) (A) (A) (A)
                 (A) (A) (A) (A) (A) (A) (A) (A) (A) (A) (A) (A)
                 (A) (A) (A) (A) (A) (A) (A) (A) (A) (A) (A) (A)
                 (A) (A) (A) (A) (A) (A) (A) (A) (A) (A) (A) (A)
                 (A) (A) (A) (A) (A) (A) (A) (A) (A) (A) (A) (A)
                 (A) (A) (A) (A) (A) (A) (A) (A) (A) (A) (A) (A)
                 (A) (A) (A) (A) (A) (A) (A) (A) (A) (A) (A) (A)
                 (A) (A) (A) (A) (A) (A) (A) (A) (A) (A) (A) (A)
                 (A) (A) (A) (A) (A) (A) (A) (A) (A) (A) (A) (A)
                 (A) (A) (A) (A) (A) (A) (A) (A) (A) (A) (A) (A)
                 (A) (A) (A) (A) (A) (A) (A) (A) (A) (A) (A) (A)
                 (A) (A) (A) (A) (A) (A) (A) (A) (A) (A) (A) (A)
                 (A) (A) (A) (A) (A) (A) (A) (A) (A) (A) (A) (A)
                 (A) (A) (A) (A) (A) (A) (A) (A) (A) (A) (A) (A)
                 (A) (A) (A) (A) (A) (A) (A) (A) (A) (A) (A) (A)
                 (A) (A) (A) (A) (A) (A) (A) (A) (A) (A) (A) (A)
                 (A) (A) (A) (A) (A) (A) (A) (A) (A) (A) (A) (A)
                 (A) (A) (A) (A) (A) (A) (A) (A) (A) (A) (A) (A)
                 (A) (A) (A) (A) (A) (A) (A) (A) (A) (A) (A) (A)
                 (A) (A) (A) (A) (A) (A) (A) (A) (A) (A) (A) (A)
                 (A) (A) (A) (A) (A) (A) (A) (A) (A) (A) (A) (A)
                 (A) (A) (A) (A) (A) (A) (A) (A) (A) (A) (A) (A)
                 (A) (A) (A) (A) (A) (A) (A) (A) (A) (A) (A) (A)
                 (A) (A) (A) (A) (A) (A) (A) (A) (A) (A) (A) (A)
                 (A) (A) (A) (A) (A) (A) (A) (A) (A) (A) (A) (A)
                 (A) (A) (A) (A) (A) (A) (A) (A) (A) (A) (A) (A)
                 (A) (A) (A) (A) (A) (A) (A) (A) (A) (A) (A) (A)
                 (A) (A) (A) (A) (A) (A) (A) (A) (A) (A) (A) (A)
                 (A) (A) (A) (A) (A) (A) (A) (A) (A) (A) (A) (A)
                 (A) (A) (A) (A) (A) (A) (A) (A) (A) (A) (A) (A)
                 (A) (A) (A) (A) (A) (A) (A) (A) (A) (A) (A) (A)
                 (A) (A) (A) (A) (A) (A) (A) (A) (A) (A) (A) (A)
                 (A) (A) (A) (A) (A) (A) (A) (A) (A) (A) (A) (A)
                 (A) (A) (A) (A) (A) (A) (A) (A) (A) (A) (A) (A)
                 (A) (A) (A) (A) (A) (A) (A) (A) (A) (A) (A) (A)
                 (A) (A) (A) (A) (A) (A) (A) (A) (A) (A) (A) (A)
                 (A) (A) (A) (A) (A) (A) (A) (A) (A) (A) (A) (A)
                 (A) (A) (A) (A) (A) (A) (A) (A) (A)
 The electronic state is 1-A.
 Alpha  occ. eigenvalues -- -483.12087 -62.66933 -56.46038 -56.45704 -56.45689
 Alpha  occ. eigenvalues --  -19.21292 -14.46501 -14.46328 -10.39071 -10.38923
 Alpha  occ. eigenvalues --  -10.33872 -10.31079 -10.30417 -10.29124 -10.29089
 Alpha  occ. eigenvalues --  -10.29072 -10.29037 -10.29014 -10.28950 -10.28929
 Alpha  occ. eigenvalues --  -10.28924 -10.28873 -10.28276 -10.28252 -10.27242
 Alpha  occ. eigenvalues --   -8.81036  -6.63145  -6.62090  -6.62039  -2.73534
 Alpha  occ. eigenvalues --   -2.73244  -2.73204  -2.72350  -2.72350  -1.14041
 Alpha  occ. eigenvalues --   -1.04295  -1.02279  -0.97302  -0.95480  -0.93566
 Alpha  occ. eigenvalues --   -0.87885  -0.85232  -0.85149  -0.84765  -0.83279
 Alpha  occ. eigenvalues --   -0.80532  -0.77947  -0.73715  -0.71448  -0.70425
 Alpha  occ. eigenvalues --   -0.70087  -0.67203  -0.64113  -0.62605  -0.61957
 Alpha  occ. eigenvalues --   -0.61374  -0.58141  -0.57502  -0.56742  -0.55451
 Alpha  occ. eigenvalues --   -0.54348  -0.53813  -0.53658  -0.52760  -0.52378
 Alpha  occ. eigenvalues --   -0.51885  -0.50977  -0.50874  -0.50060  -0.49720
 Alpha  occ. eigenvalues --   -0.48140  -0.47296  -0.46838  -0.46478  -0.45375
 Alpha  occ. eigenvalues --   -0.44726  -0.43122  -0.42919  -0.42434  -0.41420
 Alpha  occ. eigenvalues --   -0.39932  -0.36927  -0.36200  -0.35141  -0.33930
 Alpha  occ. eigenvalues --   -0.33778  -0.32934  -0.30561  -0.27053
 Alpha virt. eigenvalues --    0.02231   0.03802   0.05154   0.05392   0.06469
 Alpha virt. eigenvalues --    0.08292   0.10415   0.12362   0.12905   0.13916
 Alpha virt. eigenvalues --    0.14092   0.14713   0.15569   0.16214   0.16730
 Alpha virt. eigenvalues --    0.17347   0.17945   0.18147   0.18607   0.19325
 Alpha virt. eigenvalues --    0.19667   0.20099   0.20416   0.20930   0.21413
 Alpha virt. eigenvalues --    0.21760   0.22354   0.22399   0.23390   0.23599
 Alpha virt. eigenvalues --    0.24163   0.24733   0.25288   0.26157   0.26914
 Alpha virt. eigenvalues --    0.27036   0.27408   0.27724   0.28124   0.28638
 Alpha virt. eigenvalues --    0.29107   0.29701   0.29786   0.30214   0.30409
 Alpha virt. eigenvalues --    0.30952   0.31710   0.31961   0.32141   0.32763
 Alpha virt. eigenvalues --    0.33035   0.33472   0.33839   0.34187   0.34537
 Alpha virt. eigenvalues --    0.35261   0.35821   0.36752   0.37100   0.37233
 Alpha virt. eigenvalues --    0.37730   0.38345   0.38579   0.38703   0.39737
 Alpha virt. eigenvalues --    0.40116   0.40220   0.41496   0.41729   0.42317
 Alpha virt. eigenvalues --    0.42701   0.43176   0.43628   0.44127   0.44892
 Alpha virt. eigenvalues --    0.45259   0.45708   0.46607   0.46718   0.47063
 Alpha virt. eigenvalues --    0.47479   0.47781   0.48526   0.48764   0.49372
 Alpha virt. eigenvalues --    0.49568   0.49937   0.50005   0.50445   0.50754
 Alpha virt. eigenvalues --    0.50863   0.51301   0.51844   0.52153   0.52425
 Alpha virt. eigenvalues --    0.52885   0.53245   0.53797   0.54102   0.54624
 Alpha virt. eigenvalues --    0.55400   0.55851   0.56041   0.56807   0.57137
 Alpha virt. eigenvalues --    0.57275   0.57676   0.57853   0.58462   0.58603
 Alpha virt. eigenvalues --    0.59240   0.59708   0.60227   0.61324   0.61543
 Alpha virt. eigenvalues --    0.63065   0.63465   0.64321   0.64716   0.65119
 Alpha virt. eigenvalues --    0.65710   0.67170   0.67490   0.68136   0.68559
 Alpha virt. eigenvalues --    0.69994   0.70226   0.71431   0.71858   0.72369
 Alpha virt. eigenvalues --    0.72653   0.73109   0.73720   0.74709   0.75309
 Alpha virt. eigenvalues --    0.75747   0.76156   0.76552   0.77301   0.77997
 Alpha virt. eigenvalues --    0.78608   0.78754   0.79599   0.80561   0.80875
 Alpha virt. eigenvalues --    0.81835   0.82759   0.82884   0.83477   0.83713
 Alpha virt. eigenvalues --    0.85309   0.85889   0.86336   0.87053   0.87928
 Alpha virt. eigenvalues --    0.88305   0.88997   0.89857   0.90629   0.90972
 Alpha virt. eigenvalues --    0.92131   0.92414   0.93411   0.93804   0.94626
 Alpha virt. eigenvalues --    0.95233   0.96023   0.96659   0.97911   0.98537
 Alpha virt. eigenvalues --    0.99011   0.99629   1.00621   1.01127   1.01574
 Alpha virt. eigenvalues --    1.02400   1.02741   1.04409   1.05517   1.06792
 Alpha virt. eigenvalues --    1.07210   1.08062   1.08518   1.09686   1.10077
 Alpha virt. eigenvalues --    1.10731   1.11744   1.12955   1.13178   1.13724
 Alpha virt. eigenvalues --    1.14919   1.15391   1.16228   1.17465   1.18153
 Alpha virt. eigenvalues --    1.18332   1.18717   1.20613   1.20932   1.22642
 Alpha virt. eigenvalues --    1.23765   1.24369   1.25376   1.25531   1.26505
 Alpha virt. eigenvalues --    1.27506   1.28342   1.29732   1.30042   1.30279
 Alpha virt. eigenvalues --    1.30558   1.31731   1.32266   1.33120   1.33520
 Alpha virt. eigenvalues --    1.35044   1.35601   1.35708   1.35969   1.36677
 Alpha virt. eigenvalues --    1.37501   1.38738   1.39352   1.40089   1.40851
 Alpha virt. eigenvalues --    1.41447   1.43592   1.43870   1.44464   1.46614
 Alpha virt. eigenvalues --    1.47173   1.47347   1.48158   1.48968   1.49708
 Alpha virt. eigenvalues --    1.51448   1.52875   1.53364   1.53869   1.54007
 Alpha virt. eigenvalues --    1.54512   1.54757   1.55640   1.56845   1.57437
 Alpha virt. eigenvalues --    1.58020   1.58700   1.58879   1.59386   1.59960
 Alpha virt. eigenvalues --    1.60496   1.60784   1.61362   1.62019   1.63120
 Alpha virt. eigenvalues --    1.63705   1.64495   1.64723   1.65325   1.65411
 Alpha virt. eigenvalues --    1.66375   1.66632   1.67229   1.68200   1.68748
 Alpha virt. eigenvalues --    1.69207   1.69776   1.70500   1.71527   1.71905
 Alpha virt. eigenvalues --    1.72809   1.73157   1.73511   1.73985   1.74345
 Alpha virt. eigenvalues --    1.74733   1.75366   1.76415   1.77026   1.77531
 Alpha virt. eigenvalues --    1.77868   1.78830   1.79224   1.79628   1.80561
 Alpha virt. eigenvalues --    1.80842   1.81383   1.81805   1.82346   1.82491
 Alpha virt. eigenvalues --    1.82785   1.83413   1.84929   1.85736   1.87115
 Alpha virt. eigenvalues --    1.88042   1.89056   1.89498   1.92198   1.92886
 Alpha virt. eigenvalues --    1.94031   1.94967   1.95402   1.96388   1.96923
 Alpha virt. eigenvalues --    1.97765   1.98179   1.98931   2.00792   2.01302
 Alpha virt. eigenvalues --    2.02003   2.03420   2.04986   2.05909   2.06185
 Alpha virt. eigenvalues --    2.07257   2.08103   2.09329   2.10726   2.12249
 Alpha virt. eigenvalues --    2.13003   2.13648   2.13926   2.14525   2.14942
 Alpha virt. eigenvalues --    2.16543   2.17459   2.17953   2.18786   2.19343
 Alpha virt. eigenvalues --    2.20298   2.21608   2.22804   2.23422   2.24420
 Alpha virt. eigenvalues --    2.25263   2.26051   2.27171   2.29170   2.29247
 Alpha virt. eigenvalues --    2.30158   2.30723   2.31254   2.31758   2.33305
 Alpha virt. eigenvalues --    2.33457   2.35236   2.36286   2.37418   2.39133
 Alpha virt. eigenvalues --    2.39922   2.40678   2.42075   2.43411   2.45271
 Alpha virt. eigenvalues --    2.45591   2.46045   2.46910   2.47999   2.49282
 Alpha virt. eigenvalues --    2.50192   2.50939   2.53967   2.54639   2.55014
 Alpha virt. eigenvalues --    2.55901   2.56715   2.57377   2.58896   2.59954
 Alpha virt. eigenvalues --    2.60947   2.61975   2.62672   2.62905   2.63899
 Alpha virt. eigenvalues --    2.64505   2.65254   2.66210   2.66693   2.68373
 Alpha virt. eigenvalues --    2.69017   2.69293   2.70032   2.70962   2.71901
 Alpha virt. eigenvalues --    2.71979   2.73133   2.73920   2.74348   2.75119
 Alpha virt. eigenvalues --    2.76019   2.76200   2.76346   2.76843   2.77470
 Alpha virt. eigenvalues --    2.77922   2.77968   2.78410   2.78836   2.79594
 Alpha virt. eigenvalues --    2.80721   2.81455   2.82320   2.82744   2.83911
 Alpha virt. eigenvalues --    2.84379   2.85329   2.85426   2.85822   2.86175
 Alpha virt. eigenvalues --    2.86666   2.87407   2.88003   2.89161   2.89697
 Alpha virt. eigenvalues --    2.90196   2.90461   2.91742   2.92403   2.93129
 Alpha virt. eigenvalues --    2.93382   2.94318   2.94675   2.95064   2.95734
 Alpha virt. eigenvalues --    2.96120   2.96511   2.97381   2.97982   2.98651
 Alpha virt. eigenvalues --    2.99458   3.01401   3.02741   3.03083   3.05230
 Alpha virt. eigenvalues --    3.06615   3.07012   3.07539   3.09328   3.10087
 Alpha virt. eigenvalues --    3.11826   3.12342   3.12877   3.14067   3.14384
 Alpha virt. eigenvalues --    3.15873   3.16736   3.17292   3.17861   3.18646
 Alpha virt. eigenvalues --    3.19160   3.19530   3.20553   3.21342   3.22011
 Alpha virt. eigenvalues --    3.22194   3.22694   3.22993   3.23299   3.23900
 Alpha virt. eigenvalues --    3.24449   3.24456   3.25472   3.25788   3.27132
 Alpha virt. eigenvalues --    3.28194   3.29222   3.29442   3.30505   3.30834
 Alpha virt. eigenvalues --    3.31107   3.31866   3.32931   3.33177   3.33697
 Alpha virt. eigenvalues --    3.34735   3.35163   3.36530   3.37138   3.37480
 Alpha virt. eigenvalues --    3.37927   3.38729   3.39501   3.40194   3.40653
 Alpha virt. eigenvalues --    3.41923   3.42832   3.43373   3.43783   3.44330
 Alpha virt. eigenvalues --    3.45036   3.45542   3.46043   3.46756   3.47451
 Alpha virt. eigenvalues --    3.47677   3.48670   3.49606   3.50304   3.50975
 Alpha virt. eigenvalues --    3.51286   3.51764   3.53643   3.54149   3.55380
 Alpha virt. eigenvalues --    3.56065   3.56782   3.57050   3.57560   3.58335
 Alpha virt. eigenvalues --    3.59086   3.59561   3.60330   3.61067   3.61877
 Alpha virt. eigenvalues --    3.62871   3.63185   3.63836   3.65230   3.65413
 Alpha virt. eigenvalues --    3.66703   3.67019   3.69087   3.70260   3.71491
 Alpha virt. eigenvalues --    3.73143   3.73597   3.74448   3.76454   3.77241
 Alpha virt. eigenvalues --    3.77695   3.78519   3.78709   3.80051   3.82896
 Alpha virt. eigenvalues --    3.83658   3.84355   3.85875   3.86852   3.87975
 Alpha virt. eigenvalues --    3.88828   3.89540   3.92344   3.93187   3.94256
 Alpha virt. eigenvalues --    3.96732   3.98991   4.00642   4.01258   4.03624
 Alpha virt. eigenvalues --    4.04280   4.05333   4.07414   4.08650   4.09573
 Alpha virt. eigenvalues --    4.10434   4.12116   4.13089   4.13947   4.15568
 Alpha virt. eigenvalues --    4.16107   4.16476   4.18029   4.19224   4.20642
 Alpha virt. eigenvalues --    4.21232   4.22357   4.23400   4.23436   4.24000
 Alpha virt. eigenvalues --    4.26283   4.27212   4.28016   4.28657   4.29662
 Alpha virt. eigenvalues --    4.29802   4.30570   4.31671   4.32745   4.33158
 Alpha virt. eigenvalues --    4.33731   4.35196   4.36266   4.37050   4.38410
 Alpha virt. eigenvalues --    4.38609   4.39889   4.41538   4.41817   4.44364
 Alpha virt. eigenvalues --    4.45223   4.45405   4.46668   4.47285   4.49973
 Alpha virt. eigenvalues --    4.51164   4.53552   4.54589   4.57324   4.57394
 Alpha virt. eigenvalues --    4.61869   4.62607   4.66775   4.67211   4.68573
 Alpha virt. eigenvalues --    4.70177   4.71990   4.74478   4.75377   4.78400
 Alpha virt. eigenvalues --    4.79275   4.79970   4.81963   4.83162   4.85579
 Alpha virt. eigenvalues --    4.86126   4.86546   4.93547   4.96353   4.96780
 Alpha virt. eigenvalues --    4.97018   4.98538   4.99156   5.00701   5.01517
 Alpha virt. eigenvalues --    5.03145   5.07155   5.10139   5.11251   5.11629
 Alpha virt. eigenvalues --    5.16830   5.19491   5.20649   5.22458   5.23459
 Alpha virt. eigenvalues --    5.24631   5.26554   5.27344   5.28897   5.31076
 Alpha virt. eigenvalues --    5.31554   5.33298   5.34675   5.37877   5.39407
 Alpha virt. eigenvalues --    5.41067   5.42827   5.44131   5.44998   5.48861
 Alpha virt. eigenvalues --    5.54870   5.55886   5.57068   5.59875   5.67856
 Alpha virt. eigenvalues --    5.69579   5.73423   5.75246   5.80371   5.81963
 Alpha virt. eigenvalues --    5.93419   6.00988   6.17616   6.23419   6.23860
 Alpha virt. eigenvalues --    6.47671   6.56420   6.75153   6.93800   6.96365
 Alpha virt. eigenvalues --    7.21683   7.32049   7.78822  22.24294  22.26451
 Alpha virt. eigenvalues --   22.52549  22.58944  22.69983  22.72229  22.73438
 Alpha virt. eigenvalues --   22.74041  22.75923  22.86183  22.95479  22.95758
 Alpha virt. eigenvalues --   22.97408  23.12373  23.37377  23.38291  23.64177
 Alpha virt. eigenvalues --   32.17970  32.89167  44.20915
          Condensed to atoms (all electrons):
               1          2          3          4          5          6
     1  C    6.280769   0.301251  -0.156734   0.320160  -0.004744  -0.002346
     2  C    0.301251   4.638998   0.548587  -0.112514  -0.003371   0.000529
     3  O   -0.156734   0.548587   8.189574   0.041291   0.002130   0.000050
     4  C    0.320160  -0.112514   0.041291   5.271316  -0.013450   0.001070
     5  C   -0.004744  -0.003371   0.002130  -0.013450   4.852084   0.412315
     6  H   -0.002346   0.000529   0.000050   0.001070   0.412315   0.516173
     7  H   -0.002793   0.000327  -0.000025  -0.000918   0.419962  -0.019488
     8  H    0.034351  -0.007298  -0.000207   0.007165   0.408899  -0.025813
     9  N   -0.036877   0.018839  -0.017032  -0.052549   0.237260  -0.022537
    10  H    0.006483  -0.000930   0.000621   0.004092  -0.022567  -0.002366
    11  H   -0.016338  -0.003086   0.025107  -0.001596  -0.017113  -0.007380
    12  C   -0.077469   0.014944   0.002131   0.226636   0.000468   0.000560
    13  H   -0.020279  -0.000824  -0.000006  -0.031852   0.004109   0.000086
    14  H    0.020260   0.000243   0.000055  -0.061583  -0.002205   0.000007
    15  H   -0.006588   0.000462  -0.000009  -0.033282  -0.000503   0.000021
    16  Br  -0.082327  -0.026679  -0.014166   0.342785   0.005244  -0.000434
    17  C    0.098951  -0.110669   0.011974  -0.109121  -0.000517   0.000442
    18  C   -0.163710  -0.004642  -0.002655  -0.005686  -0.003266   0.000079
    19  C    0.021869   0.000091  -0.000030   0.000270   0.000165  -0.000037
    20  C   -0.008016  -0.000170  -0.000006   0.000272  -0.000045   0.000002
    21  C    0.003375  -0.001115   0.000024   0.000297   0.000083  -0.000003
    22  C   -0.127279  -0.005435  -0.000418   0.004881  -0.000311   0.000023
    23  H   -0.005731  -0.000061  -0.000133  -0.000367  -0.001813   0.000049
    24  H   -0.000246   0.000102   0.000002  -0.000032   0.000012   0.000000
    25  H    0.000023   0.000000   0.000000  -0.000000   0.000000   0.000000
    26  H   -0.000282  -0.000005  -0.000000  -0.000001  -0.000000  -0.000000
    27  H    0.000869   0.001867  -0.000018   0.001546  -0.000020   0.000001
    28  N   -0.119157   0.398206  -0.097539   0.014549   0.000400  -0.000001
    29  C    0.011453  -0.036149  -0.012690  -0.001477   0.000026  -0.000003
    30  C    0.004359  -0.018892  -0.005174  -0.000290   0.000003   0.000003
    31  C   -0.000588  -0.000570  -0.002047  -0.000033   0.000002   0.000000
    32  C    0.000104  -0.000079   0.000397   0.000002  -0.000000  -0.000000
    33  C   -0.000247  -0.000989  -0.000228  -0.000008   0.000000   0.000000
    34  C   -0.000841   0.006435   0.003835   0.000165  -0.000003  -0.000000
    35  H   -0.012334  -0.036809   0.003407   0.000339  -0.000020   0.000000
    36  H    0.002181  -0.005133   0.030075  -0.000098  -0.000013  -0.000002
    37  H   -0.000008  -0.000006  -0.000145   0.000000   0.000000   0.000000
    38  H    0.000001   0.000002   0.000002  -0.000000  -0.000000  -0.000000
    39  H   -0.000002   0.000019  -0.000001   0.000000   0.000000   0.000000
    40  H    0.000371   0.000627   0.000049   0.000019  -0.000000  -0.000000
               7          8          9         10         11         12
     1  C   -0.002793   0.034351  -0.036877   0.006483  -0.016338  -0.077469
     2  C    0.000327  -0.007298   0.018839  -0.000930  -0.003086   0.014944
     3  O   -0.000025  -0.000207  -0.017032   0.000621   0.025107   0.002131
     4  C   -0.000918   0.007165  -0.052549   0.004092  -0.001596   0.226636
     5  C    0.419962   0.408899   0.237260  -0.022567  -0.017113   0.000468
     6  H   -0.019488  -0.025813  -0.022537  -0.002366  -0.007380   0.000560
     7  H    0.509564  -0.024875  -0.034084  -0.006817   0.005237   0.001602
     8  H   -0.024875   0.559965  -0.063511   0.007319  -0.002568  -0.007527
     9  N   -0.034084  -0.063511   6.698938   0.342779   0.351929  -0.006599
    10  H   -0.006817   0.007319   0.342779   0.418612  -0.020176  -0.006299
    11  H    0.005237  -0.002568   0.351929  -0.020176   0.411294   0.004881
    12  C    0.001602  -0.007527  -0.006599  -0.006299   0.004881   5.040277
    13  H   -0.001754  -0.000067  -0.005032   0.000115  -0.000126   0.417749
    14  H   -0.000371  -0.000020   0.001876   0.000910   0.000336   0.423947
    15  H   -0.000015  -0.000174   0.004842  -0.000090  -0.000225   0.415791
    16  Br   0.000114   0.001052  -0.073297   0.002571  -0.000999  -0.058060
    17  C    0.000112  -0.006902   0.022373  -0.000832  -0.000992  -0.016196
    18  C    0.000058   0.000437   0.002205  -0.000082  -0.000086  -0.000153
    19  C    0.000044   0.002569  -0.000425   0.000008   0.000015  -0.001841
    20  C   -0.000006  -0.000266   0.000036  -0.000001  -0.000003   0.001013
    21  C    0.000004   0.000157  -0.000017  -0.000000   0.000004  -0.000698
    22  C   -0.000006  -0.000992   0.001121  -0.000008  -0.000061   0.009399
    23  H    0.000113  -0.000271   0.000498  -0.000019   0.000002   0.000671
    24  H    0.000000   0.000024   0.000001   0.000000   0.000000  -0.000002
    25  H   -0.000000  -0.000002   0.000000  -0.000000  -0.000000   0.000006
    26  H    0.000000   0.000002  -0.000001   0.000000   0.000000  -0.000018
    27  H   -0.000002  -0.000050   0.000254  -0.000004  -0.000004  -0.002443
    28  N   -0.000015  -0.000552   0.000061   0.000006   0.000625  -0.000157
    29  C    0.000001   0.000115  -0.000019  -0.000000  -0.000129  -0.000018
    30  C    0.000000   0.000025   0.000004  -0.000001   0.000052   0.000001
    31  C   -0.000000  -0.000005   0.000002  -0.000000  -0.000005   0.000000
    32  C    0.000000   0.000000  -0.000000   0.000000   0.000001   0.000000
    33  C   -0.000000  -0.000001   0.000000  -0.000000  -0.000001  -0.000000
    34  C    0.000000   0.000003  -0.000001  -0.000000  -0.000006  -0.000002
    35  H    0.000001   0.000095  -0.000041   0.000001  -0.000036  -0.000105
    36  H    0.000000   0.000014  -0.000055   0.000000   0.000220  -0.000000
    37  H   -0.000000  -0.000000   0.000000  -0.000000  -0.000000  -0.000000
    38  H    0.000000   0.000000   0.000000  -0.000000  -0.000000  -0.000000
    39  H   -0.000000  -0.000000   0.000000   0.000000   0.000000  -0.000000
    40  H    0.000000   0.000000  -0.000000   0.000000   0.000000  -0.000000
              13         14         15         16         17         18
     1  C   -0.020279   0.020260  -0.006588  -0.082327   0.098951  -0.163710
     2  C   -0.000824   0.000243   0.000462  -0.026679  -0.110669  -0.004642
     3  O   -0.000006   0.000055  -0.000009  -0.014166   0.011974  -0.002655
     4  C   -0.031852  -0.061583  -0.033282   0.342785  -0.109121  -0.005686
     5  C    0.004109  -0.002205  -0.000503   0.005244  -0.000517  -0.003266
     6  H    0.000086   0.000007   0.000021  -0.000434   0.000442   0.000079
     7  H   -0.001754  -0.000371  -0.000015   0.000114   0.000112   0.000058
     8  H   -0.000067  -0.000020  -0.000174   0.001052  -0.006902   0.000437
     9  N   -0.005032   0.001876   0.004842  -0.073297   0.022373   0.002205
    10  H    0.000115   0.000910  -0.000090   0.002571  -0.000832  -0.000082
    11  H   -0.000126   0.000336  -0.000225  -0.000999  -0.000992  -0.000086
    12  C    0.417749   0.423947   0.415791  -0.058060  -0.016196  -0.000153
    13  H    0.508450  -0.019987  -0.018495   0.006875   0.001162   0.001725
    14  H   -0.019987   0.499452  -0.016991  -0.004568   0.000001   0.000458
    15  H   -0.018495  -0.016991   0.500532  -0.000102  -0.005486  -0.000172
    16  Br   0.006875  -0.004568  -0.000102  35.039549   0.011188  -0.000508
    17  C    0.001162   0.000001  -0.005486   0.011188   5.603599   0.247323
    18  C    0.001725   0.000458  -0.000172  -0.000508   0.247323   5.354344
    19  C   -0.000284  -0.000066  -0.000067   0.000101   0.070349   0.321488
    20  C    0.000712   0.000011   0.000175  -0.000021  -0.140448   0.087423
    21  C   -0.001809  -0.000055   0.000221   0.000069   0.057283  -0.112243
    22  C   -0.001168   0.000916   0.001642  -0.001475   0.356006   0.074609
    23  H    0.000085   0.000009  -0.000011  -0.000096  -0.069949   0.451660
    24  H   -0.000007   0.000000  -0.000001  -0.000000   0.015928  -0.061975
    25  H    0.000002   0.000000   0.000001   0.000000  -0.004694   0.013312
    26  H   -0.000030  -0.000002  -0.000013   0.000002   0.016558  -0.005658
    27  H    0.000472   0.000199  -0.000937   0.001204  -0.075146   0.014658
    28  N    0.000022   0.000018  -0.000016  -0.001636  -0.029413   0.033141
    29  C    0.000000  -0.000001  -0.000000   0.000090   0.002271  -0.000670
    30  C   -0.000000   0.000000   0.000000   0.000005  -0.000138  -0.000931
    31  C   -0.000000   0.000000   0.000000  -0.000011   0.000070  -0.000005
    32  C    0.000000  -0.000000  -0.000000   0.000001  -0.000039   0.000007
    33  C    0.000000   0.000000  -0.000000  -0.000003   0.000072   0.000124
    34  C   -0.000000   0.000000  -0.000000   0.000005  -0.002299   0.000775
    35  H    0.000008  -0.000002   0.000008   0.000073   0.012482  -0.008460
    36  H   -0.000000  -0.000000  -0.000000   0.000215  -0.000316  -0.000048
    37  H    0.000000   0.000000   0.000000  -0.000000   0.000001   0.000000
    38  H   -0.000000  -0.000000  -0.000000   0.000000   0.000000  -0.000000
    39  H   -0.000000   0.000000   0.000000  -0.000000   0.000002   0.000000
    40  H   -0.000000  -0.000000   0.000000   0.000003  -0.000567   0.000076
              19         20         21         22         23         24
     1  C    0.021869  -0.008016   0.003375  -0.127279  -0.005731  -0.000246
     2  C    0.000091  -0.000170  -0.001115  -0.005435  -0.000061   0.000102
     3  O   -0.000030  -0.000006   0.000024  -0.000418  -0.000133   0.000002
     4  C    0.000270   0.000272   0.000297   0.004881  -0.000367  -0.000032
     5  C    0.000165  -0.000045   0.000083  -0.000311  -0.001813   0.000012
     6  H   -0.000037   0.000002  -0.000003   0.000023   0.000049   0.000000
     7  H    0.000044  -0.000006   0.000004  -0.000006   0.000113   0.000000
     8  H    0.002569  -0.000266   0.000157  -0.000992  -0.000271   0.000024
     9  N   -0.000425   0.000036  -0.000017   0.001121   0.000498   0.000001
    10  H    0.000008  -0.000001  -0.000000  -0.000008  -0.000019   0.000000
    11  H    0.000015  -0.000003   0.000004  -0.000061   0.000002   0.000000
    12  C   -0.001841   0.001013  -0.000698   0.009399   0.000671  -0.000002
    13  H   -0.000284   0.000712  -0.001809  -0.001168   0.000085  -0.000007
    14  H   -0.000066   0.000011  -0.000055   0.000916   0.000009   0.000000
    15  H   -0.000067   0.000175   0.000221   0.001642  -0.000011  -0.000001
    16  Br   0.000101  -0.000021   0.000069  -0.001475  -0.000096  -0.000000
    17  C    0.070349  -0.140448   0.057283   0.356006  -0.069949   0.015928
    18  C    0.321488   0.087423  -0.112243   0.074609   0.451660  -0.061975
    19  C    5.060584   0.346115   0.049829  -0.094902  -0.039030   0.459014
    20  C    0.346115   5.062172   0.372847   0.049454   0.010792  -0.060409
    21  C    0.049829   0.372847   5.025483   0.397528  -0.003968   0.012366
    22  C   -0.094902   0.049454   0.397528   5.150786   0.010847  -0.004606
    23  H   -0.039030   0.010792  -0.003968   0.010847   0.490441  -0.006575
    24  H    0.459014  -0.060409   0.012366  -0.004606  -0.006575   0.511557
    25  H   -0.060663   0.458671  -0.059742   0.012326  -0.000043  -0.006910
    26  H    0.013205  -0.061106   0.460931  -0.063063   0.000010  -0.000038
    27  H   -0.005119   0.011653  -0.046714   0.456795   0.000005   0.000014
    28  N   -0.004554   0.001553  -0.000684   0.001165   0.004406  -0.000165
    29  C    0.000033  -0.000192  -0.000017   0.000938   0.000089   0.000007
    30  C    0.000081  -0.000006   0.000004   0.000017  -0.000039   0.000004
    31  C   -0.000008   0.000000  -0.000000  -0.000001   0.000001  -0.000000
    32  C    0.000004   0.000001   0.000000   0.000001   0.000003  -0.000000
    33  C   -0.000057   0.000005  -0.000002  -0.000003   0.000006  -0.000001
    34  C    0.000195   0.000024  -0.000112  -0.000044   0.000084   0.000008
[...]
 0000084,0.00002493,0.00000118,-0.00000330,0.00000332,0.00000664,-0.000
 00835,0.00004491,-0.00001075,0.00000476,-0.00000725,0.00000293,-0.0000
 0183,0.00000775,-0.00000358,0.00000025,0.00000446,0.00000016,0.0000012
 7,0.00000804,0.00000397,0.00000318,-0.00000588,-0.00000259,-0.00040429
 ,0.00105265,0.00221828,0.02175529,-0.01303476,-0.00785433,0.13476355,-
 0.19038706,-0.06536717,-0.00768622,0.00991275,0.00298850,-0.00240421,0
 .00172913,-0.00236179,-0.00103304,-0.00043440,0.00017441,-0.00271897,-
 0.00295917,-0.00374679,0.00006718,-0.00005209,0.00009048,-0.14600508,0
 .19551353,0.00036629,-0.00003478,0.00049467,-0.00024557,-0.00127452,-0
 .00065868,0.00156308,0.00091465,-0.00018016,-0.00010412,0.00017956,0.0
 0012129,0.00000053,-0.00002736,0.00002753,-0.00000383,0.00000356,-0.00
 001165,0.00000046,0.00000522,-0.00000515,-0.00000289,0.00000510,0.0000
 0776,0.00001600,-0.00005982,-0.00010439,-0.00001013,0.00001029,0.00000
 144,-0.00002679,0.00001954,0.00004846,-0.00000006,-0.00001744,-0.00001
 447,0.00000140,0.00000168,-0.00000183,0.00000905,-0.00000052,-0.000008
 40,0.00000430,0.00000261,-0.00000112,0.00002745,0.00002318,-0.00000600
 ,0.00000796,-0.00002022,0.00003106,-0.00000743,-0.00000822,0.00001503,
 0.00000103,0.00000433,-0.00000374,-0.00000296,0.00000144,-0.00000221,0
 .00000334,0.00000186,0.00000494,-0.00000769,0.00002073,-0.00000475,0.0
 0000380,-0.00000306,0.00000013,0.00000012,0.00000311,-0.00000107,-0.00
 000024,0.00000118,-0.00000008,0.00000160,0.00000259,0.00000034,-0.0000
 0125,-0.00000210,-0.00000302,-0.00018048,0.00208302,-0.00296871,0.0086
 5005,-0.00732768,0.00168978,0.05814814,-0.06559752,-0.06564287,-0.0025
 9684,0.00252744,0.00388020,-0.00077539,-0.00228792,0.00673453,-0.00052
 904,0.00008191,-0.00075850,-0.00080287,-0.00380924,0.00472768,0.000020
 18,0.00010680,-0.00028703,-0.06382703,0.07250136,0.05732264,-0.0002605
 3,0.00003649,0.00000898,0.00063302,-0.00028458,-0.00020091,-0.00010210
 ,0.00018393,0.00010576,0.00013281,-0.00018367,-0.00007137,-0.00000116,
 0.00002124,-0.00001176,0.00000116,-0.00000451,0.00000811,-0.00000176,-
 0.00000242,0.00000229,0.00000184,-0.00000316,-0.00000700,-0.00004347,0
 .00005147,0.00007596,0.00000270,-0.00000017,0.00001397,0.00001957,-0.0
 0001132,-0.00002070,-0.00001157,0.00001424,-0.00000738,-0.00000010,0.0
 0000190,0.00000079,-0.00000739,-0.00000158,0.00000393,-0.00000636,-0.0
 0000127,0.00000024,-0.00001324,0.00003334,-0.00000341,-0.00003469,0.00
 002867,0.00001851,-0.00001104,-0.00001233,-0.00000656,-0.00000167,0.00
 001344,0.00000464,-0.00000113,-0.00001216,-0.00001066,0.00000414,-0.00
 000825,0.00000290,0.00000096,0.00000567,0.00002116,0.00000154,0.000003
 68,-0.00000540,0.00000084,-0.00000344,0.00000210,-0.00000003,-0.000002
 50,-0.00000043,-0.00000062,-0.00000333,-0.00000199,-0.00000076,0.00000
 217,0.00000005,-0.00033495,-0.00149574,-0.00059332,-0.00510867,-0.0006
 7686,0.00002820,-0.00421038,-0.02817674,-0.01145076,-0.08049550,-0.067
 32022,-0.02680796,0.01049432,0.02053132,0.00831790,-0.00252274,0.00317
 354,0.00157721,-0.00125324,0.00037963,0.00015341,-0.00040660,-0.000043
 78,-0.00000740,0.00115748,0.00051008,0.00008994,0.08103491,-0.00029633
 ,0.00000260,-0.00000099,0.00060607,-0.00024838,-0.00019193,-0.00018423
 ,0.00012707,0.00006170,0.00016483,-0.00020113,-0.00009516,-0.00000167,
 0.00002471,-0.00001267,0.00000125,-0.00000550,0.00000902,-0.00000203,-
 0.00000277,0.00000247,0.00000202,-0.00000349,-0.00000780,-0.00004897,0
 .00005880,0.00008779,0.00000350,0.00000056,0.00001619,0.00001988,-0.00
 001142,-0.00002174,-0.00000943,0.00001300,-0.00000771,-0.00000089,0.00
 000123,0.00000156,-0.00000717,-0.00000165,0.00000511,-0.00000723,-0.00
 000096,0.00000056,-0.00001434,0.00003652,-0.00000285,-0.00002950,0.000
 03450,0.00002382,-0.00000456,-0.00001808,-0.00000500,0.00000017,0.0000
 1370,0.00000535,-0.00000290,-0.00001025,-0.00001122,0.00000323,-0.0000
 1063,0.00000358,0.00000434,0.00000353,0.00001410,0.00000121,0.00000348
 ,-0.00000481,0.00000049,-0.00000327,0.00000191,0.00000020,-0.00000218,
 -0.00000053,-0.00000052,-0.00000299,-0.00000172,-0.00000041,0.00000245
 ,0.00000055,-0.00061774,-0.00025873,-0.00011961,-0.00044741,0.00284807
 ,-0.00206604,0.00041208,-0.00249894,-0.00254399,-0.06760419,-0.2810338
 2,-0.09826345,-0.00847242,-0.01339105,-0.00696637,0.00373399,-0.000133
 04,-0.00323098,0.00031912,0.00032954,0.00057942,-0.00007144,0.00001967
 ,0.00008070,-0.00008540,0.00002426,0.00187740,0.07287664,0.29514938,-0
 .00013481,0.00000495,-0.00000660,0.00023955,-0.00010307,-0.00005971,-0
 .00006278,0.00002482,0.00010031,0.00007204,-0.00008696,-0.00003248,-0.
 00000073,0.00000963,-0.00000602,0.00000120,-0.00000227,0.00000317,-0.0
 0000114,-0.00000102,0.00000102,0.00000084,-0.00000096,-0.00000267,-0.0
 0002103,0.00002511,0.00003473,0.00000166,-0.00000005,0.00000676,0.0000
 0816,-0.00000624,-0.00000772,-0.00000377,0.00000509,-0.00000337,-0.000
 00023,0.00000084,0.00000067,-0.00000294,-0.00000069,0.00000209,-0.0000
 0316,-0.00000046,0.00000015,-0.00000722,0.00001692,-0.00000232,-0.0000
 0358,0.00002270,0.00000118,0.00000638,-0.00000446,-0.00000078,-0.00000
 088,0.00000065,0.00000113,0.00000022,-0.00000389,-0.00000110,-0.000000
 02,-0.00000014,-0.00000044,-0.00000033,-0.00000445,0.00000224,-0.00000
 010,0.00000141,-0.00000201,0.00000011,-0.00000087,0.00000071,0.0000001
 2,-0.00000077,-0.00000012,-0.00000026,-0.00000124,-0.00000067,-0.00000
 008,0.00000094,0.00000057,-0.00024211,-0.00011406,0.00006265,0.0001226
 1,-0.00207237,0.00696704,0.00041213,-0.00182859,0.00290153,-0.02700305
 ,-0.09820767,-0.07907040,-0.00363510,-0.00778532,0.00087694,0.00184579
 ,-0.00318718,0.00608471,0.00009257,0.00059411,-0.00082118,-0.00002850,
 0.00007098,-0.00012642,-0.00016456,0.00185234,-0.00375365,0.02877731,0
 .10903888,0.07121271,-0.00023012,-0.00001884,-0.00000395,0.00038766,0.
 00001604,-0.00005843,-0.00035545,-0.00004583,0.00001961,0.00013038,-0.
 00015676,-0.00006801,-0.00000179,0.00001969,-0.00001168,0.00000144,-0.
 00000415,0.00000708,-0.00000190,-0.00000263,0.00000234,0.00000165,-0.0
 0000225,-0.00000589,-0.00004161,0.00004402,0.00006880,0.00000202,-0.00
 000097,0.00001220,0.00002408,-0.00001094,-0.00002375,-0.00000727,0.000
 01050,-0.00000666,-0.00000068,0.00000102,0.00000133,-0.00000580,-0.000
 00133,0.00000400,-0.00000600,-0.00000100,0.00000018,-0.00001251,0.0000
 2865,-0.00000310,-0.00002398,0.00003098,0.00001575,-0.00000036,-0.0000
 1301,-0.00000360,0.00000012,0.00000787,0.00000292,-0.00000138,-0.00000
 841,-0.00000613,0.00000181,-0.00000548,0.00000124,0.00000255,-0.000003
 26,0.00000927,0.00000057,0.00000287,-0.00000369,0.00000055,-0.00000257
 ,0.00000149,0.00000017,-0.00000181,-0.00000037,-0.00000042,-0.00000258
 ,-0.00000147,-0.00000033,0.00000203,0.00000061,-0.00035596,-0.00000686
 ,-0.00001685,0.00071379,0.00056949,0.00019466,-0.00090981,0.00348751,0
 .00165061,-0.01585184,-0.00793934,-0.00279437,-0.32698630,-0.06396452,
 -0.01879359,-0.00400708,0.00088815,0.00053905,0.00151021,-0.00140936,-
 0.00042843,0.00000983,0.00000417,0.00000589,-0.00065086,-0.00045798,-0
 .00016850,0.00089621,0.00023172,-0.00003635,0.34545191,-0.00003708,0.0
 0004904,-0.00003693,0.00008798,-0.00022731,-0.00005796,0.00015552,0.00
 015614,0.00009218,0.00000019,-0.00001961,-0.00001381,0.00000051,0.0000
 0146,-0.00000063,0.00000016,-0.00000038,0.00000062,-0.00000010,0.00000
 004,-0.00000013,0.00000010,-0.00000063,-0.00000039,0.00000283,0.000006
 35,0.00000722,0.00000208,0.00000065,0.00000005,-0.00000562,0.00000194,
 0.00000433,-0.00000187,0.00000327,0.00000200,0.00000034,-0.00000020,0.
 00000007,-0.00000124,-0.00000010,0.00000066,0.00000011,-0.00000016,0.0
 0000038,-0.00000065,-0.00000314,0.00000135,0.00000506,0.00000002,-0.00
 000285,-0.00000403,-0.00000035,0.00000007,-0.00000133,0.00000217,0.000
 00087,0.00000100,0.00000011,-0.00000066,0.00000022,-0.00000040,0.00000
 002,-0.00000023,0.00000253,0.00000288,0.00000050,0.00000008,-0.0000010
 5,0.00000013,-0.00000024,0.00000016,0.00000003,-0.00000027,-0.00000013
 ,-0.00000011,-0.00000011,-0.00000010,0.00000054,0.00000004,-0.00000004
 ,-0.00029236,0.00015082,0.00051486,0.00051700,-0.00123295,-0.00027168,
 0.00269982,-0.00142725,-0.00364320,0.02146280,0.00885730,0.00210054,-0
 .06400117,-0.07144236,-0.01343642,-0.02833007,-0.00171936,-0.00086241,
 -0.00075575,-0.00337991,-0.00437437,0.00013820,-0.00000642,-0.00001271
 ,0.00082041,0.00035794,-0.00000522,-0.00057893,0.00018185,0.00183247,0
 .06892666,0.06952123,0.00003775,-0.00003839,0.00010712,0.00004653,-0.0
 0008738,-0.00014880,0.00008715,0.00012191,-0.00003932,0.00000388,0.000
 01229,0.00002137,-0.00000038,-0.00000186,0.00000262,-0.00000055,0.0000
 0019,-0.00000098,-0.00000005,0.00000038,-0.00000020,-0.00000008,0.0000
 0089,-0.00000023,-0.00000756,-0.00000642,-0.00001026,-0.00000333,0.000
 00088,0.00000285,0.00000359,-0.00000296,-0.00000089,-0.00000035,-0.000
 00373,-0.00000551,-0.00000021,0.00000092,-0.00000027,0.00000127,-0.000
 00018,-0.00000137,-0.00000071,0.00000033,-0.00000062,-0.00000005,0.000
 01347,-0.00000374,-0.00000358,0.00000682,0.00001055,0.00001075,0.00000
 225,-0.00000193,0.00000164,-0.00000110,-0.00000164,-0.00000324,-0.0000
 0140,-0.00000085,0.00000087,-0.00000121,0.00000213,-0.00000028,0.00000
 020,-0.00000241,0.00000039,0.00000030,-0.00000041,0.,0.00000034,-0.000
 00011,0.00000019,0.00000006,-0.00000004,0.00000027,0.00000006,-0.00000
 032,-0.00000081,0.00000008,-0.00000033,-0.00014189,0.00053623,-0.00080
 097,0.00012717,-0.00030840,-0.00074594,0.00131473,-0.00366647,0.005651
 61,0.00934696,0.00293184,0.00333309,-0.01874698,-0.01343117,-0.0400293
 8,-0.01166096,-0.00169335,0.00175752,-0.00008631,-0.00435835,0.0054080
 9,0.00005673,-0.00000904,0.00000470,0.00033614,0.00004010,0.00036246,-
 0.00037606,0.00180041,-0.00344603,0.02009354,0.01651431,0.03162190,-0.
 00043827,0.00010500,0.00003063,0.00051201,-0.00074144,-0.00043192,-0.0
 0008378,0.00027943,0.00015346,0.00018243,-0.00029052,-0.00010252,-0.00
 000178,0.00003087,-0.00001603,0.00000184,-0.00000678,0.00001101,-0.000
 00291,-0.00000334,0.00000294,0.00000254,-0.00000393,-0.00000991,-0.000
 06026,0.00007302,0.00010790,0.00000480,0.00000093,0.00002030,0.0000235
 1,-0.00001410,-0.00002500,-0.00001887,0.00002490,-0.00001243,-0.000000
 10,0.00000186,0.00000223,-0.00001192,-0.00000365,0.00000576,-0.0000102
 9,-0.00000167,0.00000021,-0.00001842,0.00005068,-0.00000538,-0.0000277
 2,0.00005953,0.00002239,-0.00000262,-0.00002232,-0.00000475,0.00000058
 ,0.00001541,0.00000530,-0.00000109,-0.00001557,-0.00001193,0.00000312,
 -0.00000968,0.00000217,0.00000334,-0.00000308,0.00001643,0.00000097,0.
 00000488,-0.00000678,0.00000034,-0.00000451,0.00000314,-0.00000023,-0.
 00000324,-0.00000050,-0.00000113,-0.00000434,-0.00000229,-0.00000044,0
 .00000318,0.00000090,-0.00173545,0.00139939,0.00070490,-0.00359551,-0.
 00255700,-0.00076273,-0.00054353,-0.00084400,-0.00035377,0.00084872,-0
 .00222228,-0.00076067,0.01017972,-0.00741652,-0.00326650,-0.19229311,0
 .12805096,0.05705891,-0.01597016,0.02208893,0.00961614,0.00007948,0.00
 007907,0.00004260,0.00004687,0.00011425,0.00001523,0.00032228,-0.00038
 637,-0.00016695,0.00068664,0.00056898,0.00013003,0.20083179,0.00011636
 ,0.00002111,0.00001941,-0.00039049,0.00003348,0.00011161,0.00010577,-0
 .00005622,-0.00006783,-0.00008395,0.00007880,0.00004423,0.00000095,-0.
 00001115,0.00000580,-0.00000091,0.00000258,-0.00000365,0.00000110,0.00
 000121,-0.00000107,-0.00000108,0.00000135,0.00000320,0.00002395,-0.000
 02660,-0.00003849,-0.00000160,-0.00000036,-0.00000804,-0.00000936,0.00
 000559,0.00000919,0.00000191,-0.00000317,0.00000202,0.00000064,-0.0000
 0052,-0.00000072,0.00000233,0.00000040,-0.00000256,0.00000286,0.000000
 25,-0.00000043,0.00000698,-0.00001509,0.00000102,0.00000918,-0.0000150
 8,-0.00001006,-0.00000067,0.00000701,0.00000061,-0.00000092,-0.0000047
 6,-0.00000210,0.00000172,0.00000418,0.00000477,-0.00000073,0.00000383,
 -0.00000161,-0.00000203,-0.00000080,-0.00000455,-0.00000059,-0.0000013
 2,0.00000219,0.00000012,0.00000118,-0.00000079,-0.00000018,0.00000083,
 0.00000022,0.00000020,0.00000121,0.00000076,0.00000023,-0.00000118,-0.
 00000038,0.00022341,0.00032545,0.00006572,-0.00258348,0.00179680,-0.00
 252400,-0.00076729,-0.00029806,0.00036175,-0.00283407,-0.00307328,-0.0
 0426578,0.02132257,-0.01259890,-0.00734377,0.12871727,-0.18297336,-0.0
 6305675,-0.00691255,0.00817507,0.00209633,0.00000394,-0.00001131,-0.00
 000387,0.00009467,-0.00010488,0.00038862,0.00101805,-0.00082357,-0.000
 37494,-0.00024290,0.00039362,0.00184673,-0.13823453,0.18912828,0.00005
 405,0.00001035,-0.00001356,-0.00017608,0.00010157,-0.00008600,0.000040
 72,-0.00005656,0.00002985,-0.00003530,0.00003822,0.00002471,0.00000033
 ,-0.00000521,0.00000240,-0.00000022,0.00000111,-0.00000187,0.00000039,
 0.00000055,-0.00000047,-0.00000030,0.00000077,0.00000170,0.00000764,-0
 .00001182,-0.00001859,-0.00000100,-0.00000020,-0.00000268,-0.00000307,
 0.00000152,0.00000374,0.00000044,-0.00000124,0.00000304,0.00000049,-0.
 00000009,-0.00000046,0.00000085,0.00000008,-0.00000098,0.00000183,0.00
 000018,-0.00000008,0.00000279,-0.00000710,0.00000058,0.00000435,-0.000
 00865,-0.00000392,-0.00000270,0.00000485,0.00000212,0.00000166,-0.0000
 0301,-0.00000206,0.00000030,0.00000110,0.00000277,-0.00000048,0.000003
 30,-0.00000166,-0.00000059,-0.00000136,-0.00000149,0.00000037,-0.00000
 106,0.00000034,-0.00000028,0.00000068,-0.00000052,0.,0.00000041,0.0000
 0019,-0.00000002,0.00000039,0.00000019,-0.00000022,-0.00000025,-0.0000
 0018,0.00012218,0.00003507,0.00018939,-0.00074821,-0.00249800,0.006994
 06,-0.00032515,0.00033532,-0.00094003,-0.00107331,-0.00425863,0.005643
 67,0.00869042,-0.00669824,0.00074667,0.05735099,-0.06299367,-0.0663210
 5,-0.00235622,0.00138238,0.00414812,-0.00000100,-0.00000135,-0.0000105
 6,0.00001086,0.00039202,-0.00089244,0.00041915,-0.00034278,-0.00013429
 ,-0.00022318,0.00182234,-0.00325868,-0.06178111,0.07087659,0.05762535,
 0.00024751,-0.00006082,-0.00000470,-0.00045173,0.00033955,0.00019539,0
 .00000156,-0.00032130,-0.00015714,-0.00012787,0.00018316,0.00007093,0.
 00000054,-0.00002021,0.00001004,-0.00000110,0.00000443,-0.00000759,0.0
 0000189,0.00000205,-0.00000178,-0.00000162,0.00000316,0.00000684,0.000
 04044,-0.00005183,-0.00007431,-0.00000422,-0.00000128,-0.00001371,-0.0
 0001077,0.00000848,0.00001222,0.00001191,-0.00001501,0.00000688,-0.000
 00044,-0.00000136,-0.00000075,0.00000729,0.00000128,-0.00000397,0.0000
 0606,0.00000139,-0.00000059,0.00001372,-0.00003361,0.00000361,0.000019
 87,-0.00002492,-0.00001926,0.00003448,0.00002048,0.00000084,0.00002064
 ,-0.00001425,-0.00000947,0.00000277,0.00000935,0.00000526,0.00000365,0
 .00000498,-0.00000246,0.00000767,0.00000132,-0.00002227,0.00000067,-0.
 00000307,0.00000531,-0.00000192,0.00000431,-0.00000328,0.00000048,0.00
 000401,0.00000042,0.00000065,0.00000369,0.00000275,0.00000074,-0.00000
 243,0.00000104,0.00238978,0.00188692,0.00057098,0.00770266,0.01883907,
 0.00769014,-0.00256948,0.00279904,0.00140133,-0.00131590,0.00035001,0.
 00014708,-0.00539805,-0.00062922,0.00008316,-0.00350301,-0.02898815,-0
 .01177907,-0.08003939,-0.06665360,-0.02625310,-0.00150852,-0.00013368,
 0.00007423,0.00038942,0.00092580,0.00036312,0.00012592,-0.00008559,-0.
 00006098,-0.00037013,-0.00138063,-0.00056620,0.00108656,0.00041310,0.0
 0001863,0.08318728,0.00007439,-0.00001135,-0.00005572,0.00030274,0.000
 03276,0.00032869,-0.00001689,0.00035059,0.00007243,-0.00002438,0.00004
 073,-0.00001100,0.00000036,-0.00000390,0.00000160,-0.00000037,0.000000
 94,-0.00000072,0.00000049,0.00000038,-0.00000030,0.00000014,-0.0000001
 4,0.00000073,0.00000925,-0.00000873,-0.00001157,0.00000034,-0.00000034
 ,-0.00000335,-0.00000418,0.00000372,0.00000330,0.00000021,0.00000078,0
 .00000956,0.00000063,-0.00000084,-0.00000073,0.00000064,0.00000108,0.,
 0.00000393,0.00000040,0.00000040,0.00000209,-0.00001239,0.00000228,-0.
 00000244,-0.00002295,-0.00000168,-0.00000168,0.00000652,-0.00000807,0.
 00001392,0.00000706,0.00000438,0.00000729,-0.00000279,-0.00001215,0.00
 000455,-0.00000154,-0.00000154,0.00000568,0.00001377,0.00001136,0.0000
 0207,-0.00000245,-0.00000202,-0.00000107,-0.00000035,0.00000077,-0.000
 00031,-0.00000018,-0.00000001,0.00000090,0.00000028,0.00000004,0.00000
 073,-0.00000080,-0.00000005,-0.00169466,0.00085458,0.00168181,-0.00951
 727,-0.01415117,-0.00738118,0.00376847,-0.00052635,-0.00257099,0.00063
 816,0.00028856,0.00045333,-0.00128662,0.00271468,-0.00197774,0.0003355
 3,-0.00258691,-0.00225841,-0.06624299,-0.27832344,-0.09839643,0.001798
 61,-0.00032481,-0.00028056,-0.00060414,-0.00077222,-0.00029156,-0.0000
 5853,-0.00021304,0.00028583,0.00003141,-0.00022539,-0.00021961,-0.0001
 6239,0.00003737,0.00188044,0.07261538,0.29283789,-0.00000336,-0.000085
 73,0.00010773,0.00022832,0.00035394,-0.00071589,-0.00002610,0.00005671
 ,0.00023012,0.00003065,-0.00000748,0.00003431,-0.00000078,-0.00000018,
 0.00000098,-0.00000022,-0.00000004,-0.00000047,-0.00000025,0.00000009,
 0.00000005,-0.00000039,0.00000061,-0.00000053,-0.00000902,0.00000148,0
 .00000103,-0.00000257,0.00000080,0.00000293,0.00000658,-0.00000152,-0.
 00000186,0.00000166,-0.00000970,-0.00001406,-0.00000034,0.00000300,-0.
 00000073,0.00000209,0.00000079,-0.00000155,-0.00000337,-0.00000031,-0.
 00000070,-0.00000444,0.00002023,-0.00000625,0.00002099,0.00003159,0.00
 001114,0.00003383,0.00002160,-0.00000969,-0.00000576,-0.00001622,-0.00
 001350,-0.00000550,0.00000249,0.00001272,0.00000173,-0.00000238,0.0000
 0063,0.00000608,-0.00000293,-0.00001483,-0.00000055,0.00000061,-0.0000
 0428,0.00000317,0.00000171,-0.00000253,0.00000058,-0.00000013,-0.00000
 023,-0.00000150,-0.00000037,-0.00000082,-0.00000093,0.00000051,-0.0000
 0220,-0.00094988,0.00159157,-0.00240040,-0.00422067,-0.00813889,0.0011
 8524,0.00173559,-0.00253154,0.00432789,0.00035283,0.00044021,-0.000651
 05,-0.00021519,-0.00195556,0.00681244,0.00024578,-0.00152869,0.0022581
 6,-0.02590517,-0.09842203,-0.07539807,0.00085281,-0.00020014,0.0001275
 5,-0.00022372,-0.00035330,-0.00016002,-0.00004943,0.00028684,-0.000782
 33,0.00002744,-0.00017669,0.00021523,-0.00023139,0.00187063,-0.0037273
 5,0.02831040,0.10874843,0.06858120\\-0.00000133,-0.00000247,-0.0000017
 1,0.00000310,-0.00000081,0.00000100,-0.00000274,-0.00000088,0.00000548
 ,0.00000086,0.00000067,0.00000135,-0.00000068,-0.00000318,0.00000055,-
 0.00000071,-0.00000158,0.00000098,0.00000029,-0.00000227,0.00000027,0.
 00000080,-0.00000140,0.00000050,0.00000210,0.00000185,0.00000033,0.000
 00141,0.00000088,0.00000090,0.00000127,-0.00000227,-0.00000132,0.00000
 103,-0.00000006,-0.00000029,-0.00000009,-0.00000031,-0.00000050,0.0000
 0005,0.00000002,0.00000104,-0.00000008,0.00000100,-0.00000011,-0.00000
 444,0.00000305,-0.00000155,0.00000133,0.00000181,0.00000033,0.00000004
 ,-0.00000056,-0.00000119,-0.00000014,-0.00000077,-0.00000205,-0.000000
 11,0.00000022,-0.00000203,-0.00000032,0.00000165,-0.00000174,-0.000000
 71,0.00000081,-0.00000158,-0.00000062,-0.00000034,-0.00000032,-0.00000
 024,-0.00000088,-0.00000226,-0.00000032,0.00000034,-0.00000298,-0.0000
 0024,0.00000155,-0.00000233,0.00000005,0.00000140,-0.00000095,0.000001
 58,0.00000350,0.00000136,-0.00000473,0.00000151,0.00000015,0.00000251,
 0.00000315,0.00000312,0.00000098,-0.00000151,0.00000015,0.00000134,0.0
 0000015,0.00000196,-0.00000113,0.00000011,-0.00000005,-0.00000015,-0.0
 0000138,-0.00000009,0.00000074,0.00000038,0.,0.00000030,-0.00000256,0.
 00000086,0.00000012,-0.00000053,0.00000206,0.00000018,-0.00000031,0.00
 000107,-0.00000009,0.00000020,-0.00000028,-0.00000124,-0.00000020,-0.0
 0000015\\\@


 BE NOT THE FIRST BY WHOM THE NEW ARE TRIED,
 NOR YET THE THE LAST TO LAY THE OLD ASIDE.

                          -- ALEXANDER POPE
 Job cpu time:       1 days 15 hours 31 minutes 29.2 seconds.
 Elapsed time:       0 days  2 hours 28 minutes 29.4 seconds.
 File lengths (MBytes):  RWF=   2301 Int=      0 D2E=      0 Chk=     67 Scr=      1
 Normal termination of Gaussian 16 at Wed Feb 17 23:01:52 2021.
