 Entering Gaussian System, Link 0=g16
 Initial command:
 /apps/skylake/gaussian/16/A.03/g16/l1.exe "/beegfs/scratch/user/q/tla25/Gau-311288.inp" -scrdir="/beegfs/scratch/user/q/tla25/"
 Entering Link 1 = /apps/skylake/gaussian/16/A.03/g16/l1.exe PID=    311289.
  
 Copyright (c) 1988,1990,1992,1993,1995,1998,2003,2009,2016,
            Gaussian, Inc.  All Rights Reserved.
  
 This is part of the Gaussian(R) 16 program.  It is based on
 the Gaussian(R) 09 system (copyright 2009, Gaussian, Inc.),
 the Gaussian(R) 03 system (copyright 2003, Gaussian, Inc.),
 the Gaussian(R) 98 system (copyright 1998, Gaussian, Inc.),
 the Gaussian(R) 94 system (copyright 1995, Gaussian, Inc.),
 the Gaussian 92(TM) system (copyright 1992, Gaussian, Inc.),
 the Gaussian 90(TM) system (copyright 1990, Gaussian, Inc.),
 the Gaussian 88(TM) system (copyright 1988, Gaussian, Inc.),
 the Gaussian 86(TM) system (copyright 1986, Carnegie Mellon
 University), and the Gaussian 82(TM) system (copyright 1983,
 Carnegie Mellon University). Gaussian is a federally registered
 trademark of Gaussian, Inc.
  
 This software contains proprietary and confidential information,
 including trade secrets, belonging to Gaussian, Inc.
  
 This software is provided under written license and may be
 used, copied, transmitted, or stored only in accord with that
 written license.
  
 The following legend is applicable only to US Government
 contracts under FAR:
  
                    RESTRICTED RIGHTS LEGEND
  
 Use, reproduction and disclosure by the US Government is
 subject to restrictions as set forth in subparagraphs (a)
 and (c) of the Commercial Computer Software - Restricted
 Rights clause in FAR 52.227-19.
  
 Gaussian, Inc.
 340 Quinnipiac St., Bldg. 40, Wallingford CT 06492
  
  
 ---------------------------------------------------------------
 Warning -- This program may not be used in any manner that
 competes with the business of Gaussian, Inc. or will provide
 assistance to any competitor of Gaussian, Inc.  The licensee
 of this program is prohibited from giving any competitor of
 Gaussian, Inc. access to this program.  By using this program,
 the user acknowledges that Gaussian, Inc. is engaged in the
 business of creating and licensing software in the field of
 computational chemistry and represents and warrants to the
 licensee that it is not a competitor of Gaussian, Inc. and that
 it will not use this program in any manner prohibited above.
 ---------------------------------------------------------------
  

 Cite this work as:
 Gaussian 16, Revision A.03,
 M. J. Frisch, G. W. Trucks, H. B. Schlegel, G. E. Scuseria, 
 M. A. Robb, J. R. Cheeseman, G. Scalmani, V. Barone, 
 G. A. Petersson, H. Nakatsuji, X. Li, M. Caricato, A. V. Marenich, 
 J. Bloino, B. G. Janesko, R. Gomperts, B. Mennucci, H. P. Hratchian, 
 J. V. Ortiz, A. F. Izmaylov, J. L. Sonnenberg, D. Williams-Young, 
 F. Ding, F. Lipparini, F. Egidi, J. Goings, B. Peng, A. Petrone, 
 T. Henderson, D. Ranasinghe, V. G. Zakrzewski, J. Gao, N. Rega, 
 G. Zheng, W. Liang, M. Hada, M. Ehara, K. Toyota, R. Fukuda, 
 J. Hasegawa, M. Ishida, T. Nakajima, Y. Honda, O. Kitao, H. Nakai, 
 T. Vreven, K. Throssell, J. A. Montgomery, Jr., J. E. Peralta, 
 F. Ogliaro, M. J. Bearpark, J. J. Heyd, E. N. Brothers, K. N. Kudin, 
 V. N. Staroverov, T. A. Keith, R. Kobayashi, J. Normand, 
 K. Raghavachari, A. P. Rendell, J. C. Burant, S. S. Iyengar, 
 J. Tomasi, M. Cossi, J. M. Millam, M. Klene, C. Adamo, R. Cammi, 
 J. W. Ochterski, R. L. Martin, K. Morokuma, O. Farkas, 
 J. B. Foresman, and D. J. Fox, Gaussian, Inc., Wallingford CT, 2016.
 
 ******************************************
 Gaussian 16:  ES64L-G16RevA.03 25-Dec-2016
                14-Apr-2021 
 ******************************************
 %nprocshared=24
 Will use up to   24 processors via shared memory.
 %mem=140GB
 ----------------------------------------------------------------------
 # wB97XD def2tzvp, opt=(ts, noeigen, calcfc, maxcycles=70, maxstep=3),
  freq=noraman, scrf=(iefpcm, solvent=water)
 ----------------------------------------------------------------------
 1/5=1,6=70,8=3,10=4,11=1,18=20,26=3,38=1/1,3;
 2/9=110,12=2,17=6,18=5,40=1/2;
 3/5=44,7=101,11=2,25=1,30=1,70=2201,71=2,72=1,74=-58,140=1/1,2,3;
 4//1;
 5/5=2,38=5,53=1/2;
 8/6=4,10=90,11=11/1;
 11/6=1,8=1,9=11,15=111,16=1/1,2,10;
 10/6=1,13=1/2;
 6/7=2,8=2,9=2,10=2,28=1/1;
 7/10=1,18=20,25=1/1,2,3,16;
 1/5=1,6=70,8=3,10=4,11=1,18=20,26=3/3(2);
 2/9=110/2;
 99//99;
 2/9=110/2;
 3/5=44,7=101,11=2,25=1,30=1,70=2205,71=1,72=1,74=-58/1,2,3;
 4/5=5,16=3,69=1/1;
 5/5=2,38=5,53=1/2;
 7//1,2,3,16;
 1/5=1,6=70,8=3,11=1,18=20,26=3/3(-5);
 2/9=110/2;
 6/7=2,8=2,9=2,10=2,19=2,28=1/1;
 99/9=1/99;
 ------------------------
 0_iteration/TS-573-0.out
 ------------------------
 Symbolic Z-matrix:
 Charge =  0 Multiplicity = 1
 C                    -0.25297  -0.68644   0.98887 
 C                    -1.59226  -0.61377   0.4688 
 O                    -2.49306  -1.36509   0.87894 
 C                     0.90314  -0.02803   0.59117 
 C                     2.64464  -1.0849   -1.46886 
 H                     2.68053  -1.43027  -2.50205 
 H                     3.41642  -0.33373  -1.31999 
 H                     2.82432  -1.92864  -0.80672 
 N                     1.33271  -0.50209  -1.17143 
 H                     1.16375   0.30379  -1.76371 
 H                     0.59392  -1.17343  -1.35221 
 C                     2.16209  -0.30083   1.3688 
 H                     2.30181  -1.37443   1.48988 
 H                     3.04179   0.12595   0.89336 
 H                     2.06129   0.14891   2.35599 
 Cl                    0.81393   1.78758   0.26738 
 H                    -0.09536  -1.48945   1.69738 
 N                    -1.86824   0.27338  -0.54097 
 C                    -3.22499   0.48459  -0.99069 
 H                    -1.22957   1.03924  -0.66851 
 H                    -3.86527   0.90704  -0.20993 
 H                    -3.20762   1.17011  -1.83638 
 H                    -3.66759  -0.45603  -1.31598 
 
 Add virtual bond connecting atoms N9         and C4         Dist= 3.54D+00.

 GradGradGradGradGradGradGradGradGradGradGradGradGradGradGradGradGradGrad
 Berny optimization.
 Initialization pass.
                           ----------------------------
                           !    Initial Parameters    !
                           ! (Angstroms and Degrees)  !
 --------------------------                            --------------------------
 ! Name  Definition              Value          Derivative Info.                !
 --------------------------------------------------------------------------------
 ! R1    R(1,2)                  1.4386         calculate D2E/DX2 analytically  !
 ! R2    R(1,4)                  1.3886         calculate D2E/DX2 analytically  !
 ! R3    R(1,17)                 1.0824         calculate D2E/DX2 analytically  !
 ! R4    R(2,3)                  1.2426         calculate D2E/DX2 analytically  !
 ! R5    R(2,18)                 1.3722         calculate D2E/DX2 analytically  !
 ! R6    R(4,9)                  1.8751         calculate D2E/DX2 analytically  !
 ! R7    R(4,12)                 1.5047         calculate D2E/DX2 analytically  !
 ! R8    R(4,16)                 1.8464         calculate D2E/DX2 analytically  !
 ! R9    R(5,6)                  1.09           calculate D2E/DX2 analytically  !
 ! R10   R(5,7)                  1.0872         calculate D2E/DX2 analytically  !
 ! R11   R(5,8)                  1.0875         calculate D2E/DX2 analytically  !
 ! R12   R(5,9)                  1.466          calculate D2E/DX2 analytically  !
 ! R13   R(9,10)                 1.0143         calculate D2E/DX2 analytically  !
 ! R14   R(9,11)                 1.0145         calculate D2E/DX2 analytically  !
 ! R15   R(12,13)                1.0894         calculate D2E/DX2 analytically  !
 ! R16   R(12,14)                1.0872         calculate D2E/DX2 analytically  !
 ! R17   R(12,15)                1.0895         calculate D2E/DX2 analytically  !
 ! R18   R(18,19)                1.4449         calculate D2E/DX2 analytically  !
 ! R19   R(18,20)                1.0053         calculate D2E/DX2 analytically  !
 ! R20   R(19,21)                1.0945         calculate D2E/DX2 analytically  !
 ! R21   R(19,22)                1.0888         calculate D2E/DX2 analytically  !
 ! R22   R(19,23)                1.0893         calculate D2E/DX2 analytically  !
 ! A1    A(2,1,4)              130.3623         calculate D2E/DX2 analytically  !
 ! A2    A(2,1,17)             114.1842         calculate D2E/DX2 analytically  !
 ! A3    A(4,1,17)             114.7076         calculate D2E/DX2 analytically  !
 ! A4    A(1,2,3)              121.6698         calculate D2E/DX2 analytically  !
 ! A5    A(1,2,18)             119.0748         calculate D2E/DX2 analytically  !
 ! A6    A(3,2,18)             119.2088         calculate D2E/DX2 analytically  !
 ! A7    A(1,4,9)              109.8815         calculate D2E/DX2 analytically  !
 ! A8    A(1,4,12)             117.5561         calculate D2E/DX2 analytically  !
 ! A9    A(1,4,16)             118.4399         calculate D2E/DX2 analytically  !
 ! A10   A(9,4,12)             104.376          calculate D2E/DX2 analytically  !
 ! A11   A(9,4,16)              95.4415         calculate D2E/DX2 analytically  !
 ! A12   A(12,4,16)            108.0188         calculate D2E/DX2 analytically  !
 ! A13   A(6,5,7)              108.9861         calculate D2E/DX2 analytically  !
 ! A14   A(6,5,8)              109.0184         calculate D2E/DX2 analytically  !
 ! A15   A(6,5,9)              110.3491         calculate D2E/DX2 analytically  !
 ! A16   A(7,5,8)              109.5964         calculate D2E/DX2 analytically  !
 ! A17   A(7,5,9)              109.4386         calculate D2E/DX2 analytically  !
 ! A18   A(8,5,9)              109.4367         calculate D2E/DX2 analytically  !
 ! A19   A(4,9,5)              119.7502         calculate D2E/DX2 analytically  !
 ! A20   A(4,9,10)             108.0512         calculate D2E/DX2 analytically  !
 ! A21   A(4,9,11)              99.6701         calculate D2E/DX2 analytically  !
 ! A22   A(5,9,10)             110.2706         calculate D2E/DX2 analytically  !
 ! A23   A(5,9,11)             110.6378         calculate D2E/DX2 analytically  !
 ! A24   A(10,9,11)            107.4824         calculate D2E/DX2 analytically  !
 ! A25   A(4,12,13)            110.0852         calculate D2E/DX2 analytically  !
 ! A26   A(4,12,14)            112.3224         calculate D2E/DX2 analytically  !
 ! A27   A(4,12,15)            108.423          calculate D2E/DX2 analytically  !
 ! A28   A(13,12,14)           109.3705         calculate D2E/DX2 analytically  !
 ! A29   A(13,12,15)           108.5403         calculate D2E/DX2 analytically  !
 ! A30   A(14,12,15)           108.0025         calculate D2E/DX2 analytically  !
 ! A31   A(2,18,19)            120.8254         calculate D2E/DX2 analytically  !
 ! A32   A(2,18,20)            117.2652         calculate D2E/DX2 analytically  !
 ! A33   A(19,18,20)           116.4676         calculate D2E/DX2 analytically  !
 ! A34   A(18,19,21)           112.563          calculate D2E/DX2 analytically  !
 ! A35   A(18,19,22)           108.5916         calculate D2E/DX2 analytically  !
 ! A36   A(18,19,23)           110.3817         calculate D2E/DX2 analytically  !
 ! A37   A(21,19,22)           108.6863         calculate D2E/DX2 analytically  !
 ! A38   A(21,19,23)           107.9763         calculate D2E/DX2 analytically  !
 ! A39   A(22,19,23)           108.556          calculate D2E/DX2 analytically  !
 ! D1    D(4,1,2,3)            173.817          calculate D2E/DX2 analytically  !
 ! D2    D(4,1,2,18)            -3.6814         calculate D2E/DX2 analytically  !
 ! D3    D(17,1,2,3)             4.3851         calculate D2E/DX2 analytically  !
 ! D4    D(17,1,2,18)         -173.1133         calculate D2E/DX2 analytically  !
 ! D5    D(2,1,4,9)            -62.2157         calculate D2E/DX2 analytically  !
 ! D6    D(2,1,4,12)           178.6731         calculate D2E/DX2 analytically  !
 ! D7    D(2,1,4,16)            45.8758         calculate D2E/DX2 analytically  !
 ! D8    D(17,1,4,9)           107.1717         calculate D2E/DX2 analytically  !
 ! D9    D(17,1,4,12)          -11.9394         calculate D2E/DX2 analytically  !
 ! D10   D(17,1,4,16)         -144.7368         calculate D2E/DX2 analytically  !
 ! D11   D(1,2,18,19)         -173.1198         calculate D2E/DX2 analytically  !
 ! D12   D(1,2,18,20)          -20.0684         calculate D2E/DX2 analytically  !
 ! D13   D(3,2,18,19)            9.3194         calculate D2E/DX2 analytically  !
 ! D14   D(3,2,18,20)          162.3708         calculate D2E/DX2 analytically  !
 ! D15   D(1,4,9,5)           -123.1029         calculate D2E/DX2 analytically  !
 ! D16   D(1,4,9,10)           109.5976         calculate D2E/DX2 analytically  !
 ! D17   D(1,4,9,11)            -2.4918         calculate D2E/DX2 analytically  !
 ! D18   D(12,4,9,5)             3.8048         calculate D2E/DX2 analytically  !
 ! D19   D(12,4,9,10)         -123.4947         calculate D2E/DX2 analytically  !
 ! D20   D(12,4,9,11)          124.4159         calculate D2E/DX2 analytically  !
 ! D21   D(16,4,9,5)           113.9981         calculate D2E/DX2 analytically  !
 ! D22   D(16,4,9,10)          -13.3014         calculate D2E/DX2 analytically  !
 ! D23   D(16,4,9,11)         -125.3908         calculate D2E/DX2 analytically  !
 ! D24   D(1,4,12,13)           48.5488         calculate D2E/DX2 analytically  !
 ! D25   D(1,4,12,14)          170.6825         calculate D2E/DX2 analytically  !
 ! D26   D(1,4,12,15)          -70.0485         calculate D2E/DX2 analytically  !
 ! D27   D(9,4,12,13)          -73.4387         calculate D2E/DX2 analytically  !
 ! D28   D(9,4,12,14)           48.6949         calculate D2E/DX2 analytically  !
 ! D29   D(9,4,12,15)          167.9639         calculate D2E/DX2 analytically  !
 ! D30   D(16,4,12,13)        -174.1766         calculate D2E/DX2 analytically  !
 ! D31   D(16,4,12,14)         -52.0429         calculate D2E/DX2 analytically  !
 ! D32   D(16,4,12,15)          67.226          calculate D2E/DX2 analytically  !
 ! D33   D(6,5,9,4)            172.0156         calculate D2E/DX2 analytically  !
 ! D34   D(6,5,9,10)           -61.7164         calculate D2E/DX2 analytically  !
 ! D35   D(6,5,9,11)            57.0543         calculate D2E/DX2 analytically  !
 ! D36   D(7,5,9,4)            -68.0598         calculate D2E/DX2 analytically  !
 ! D37   D(7,5,9,10)            58.2081         calculate D2E/DX2 analytically  !
 ! D38   D(7,5,9,11)           176.9789         calculate D2E/DX2 analytically  !
 ! D39   D(8,5,9,4)             52.0524         calculate D2E/DX2 analytically  !
 ! D40   D(8,5,9,10)           178.3203         calculate D2E/DX2 analytically  !
 ! D41   D(8,5,9,11)           -62.9089         calculate D2E/DX2 analytically  !
 ! D42   D(2,18,19,21)          63.4581         calculate D2E/DX2 analytically  !
 ! D43   D(2,18,19,22)        -176.157          calculate D2E/DX2 analytically  !
 ! D44   D(2,18,19,23)         -57.2656         calculate D2E/DX2 analytically  !
 ! D45   D(20,18,19,21)        -89.7979         calculate D2E/DX2 analytically  !
 ! D46   D(20,18,19,22)         30.5871         calculate D2E/DX2 analytically  !
 ! D47   D(20,18,19,23)        149.4784         calculate D2E/DX2 analytically  !
 --------------------------------------------------------------------------------
 Trust Radius=3.00D-02 FncErr=1.00D-07 GrdErr=1.00D-06 EigMax=2.50D+02 EigMin=1.00D-04
 Number of steps in this run=     70 maximum allowed number of steps=    138.
 Search for a saddle point of order  1.
 GradGradGradGradGradGradGradGradGradGradGradGradGradGradGradGradGradGrad

                          Input orientation:                          
 ---------------------------------------------------------------------
 Center     Atomic      Atomic             Coordinates (Angstroms)
 Number     Number       Type             X           Y           Z
 ---------------------------------------------------------------------
      1          6           0       -0.252970   -0.686440    0.988870
      2          6           0       -1.592260   -0.613770    0.468800
      3          8           0       -2.493060   -1.365090    0.878940
      4          6           0        0.903140   -0.028030    0.591170
      5          6           0        2.644640   -1.084900   -1.468860
      6          1           0        2.680530   -1.430270   -2.502050
      7          1           0        3.416420   -0.333730   -1.319990
      8          1           0        2.824320   -1.928640   -0.806720
      9          7           0        1.332710   -0.502090   -1.171430
     10          1           0        1.163750    0.303790   -1.763710
     11          1           0        0.593920   -1.173430   -1.352210
     12          6           0        2.162090   -0.300830    1.368800
     13          1           0        2.301810   -1.374430    1.489880
     14          1           0        3.041790    0.125950    0.893360
     15          1           0        2.061290    0.148910    2.355990
     16         17           0        0.813930    1.787580    0.267380
     17          1           0       -0.095360   -1.489450    1.697380
     18          7           0       -1.868240    0.273380   -0.540970
     19          6           0       -3.224990    0.484590   -0.990690
     20          1           0       -1.229570    1.039240   -0.668510
     21          1           0       -3.865270    0.907040   -0.209930
     22          1           0       -3.207620    1.170110   -1.836380
     23          1           0       -3.667590   -0.456030   -1.315980
 ---------------------------------------------------------------------
                    Distance matrix (angstroms):
                    1          2          3          4          5
     1  C    0.000000
     2  C    1.438559   0.000000
     3  O    2.343214   1.242633   0.000000
     4  C    1.388618   2.566142   3.661245   0.000000
     5  C    3.820386   4.682714   5.655673   2.897157   0.000000
     6  H    4.620090   5.267766   6.180726   3.833197   1.089977
     7  H    4.349674   5.325887   6.389128   3.172154   1.087227
     8  H    3.773184   4.781424   5.606565   3.042589   1.087479
     9  N    2.686124   3.355336   4.425528   1.875106   1.466047
    10  H    3.250284   3.663551   4.810511   2.392380   2.051446
    11  H    2.536738   2.899772   3.813687   2.276902   2.055942
    12  C    2.474986   3.873380   4.800316   1.504687   2.983276
    13  H    2.692813   4.096949   4.833644   2.139334   2.992575
    14  H    3.394782   4.711885   5.732187   2.165376   2.684021
    15  H    2.814716   4.182295   5.021551   2.118303   4.061042
    16  Cl   2.789193   3.405408   4.609720   1.846412   3.823241
    17  H    1.082429   2.125308   2.536587   2.087211   4.206701
    18  N    2.422966   1.372165   2.256353   3.008843   4.803331
    19  C    3.758041   2.449962   2.729937   4.450451   6.094629
    20  H    2.584304   2.038985   3.125990   2.697093   4.490215
    21  H    4.126138   2.817820   2.869002   4.924820   6.923269
    22  H    4.489852   3.332487   3.782962   4.922081   6.282443
    23  H    4.126143   2.741772   2.650205   4.971114   6.345321
                    6          7          8          9         10
     6  H    0.000000
     7  H    1.772343   0.000000
     8  H    1.772905   1.777011   0.000000
     9  N    2.109191   2.095773   2.095939   0.000000
    10  H    2.419242   2.382822   2.942289   1.014291   0.000000
    11  H    2.396255   2.944935   2.417144   1.014490   1.635915
    12  C    4.065451   2.967157   2.796641   2.679766   3.342883
    13  H    4.010243   3.196996   2.419615   2.963563   3.833725
    14  H    3.752484   2.291413   2.675613   2.752952   3.258632
    15  H    5.145660   3.947423   3.860202   3.660235   4.219182
    16  Cl   4.637725   3.713846   4.359547   2.753524   2.539554
    17  H    5.034310   4.772086   3.871426   3.353257   4.096366
    18  N    5.238279   5.376159   5.190340   3.353344   3.269401
    19  C    6.389528   6.699732   6.515495   4.666780   4.459965
    20  H    4.974860   4.888220   5.026076   3.032145   2.732825
    21  H    7.318766   7.469589   7.290257   5.470752   5.298036
    22  H    6.471121   6.812202   6.859063   4.883954   4.456980
    23  H    6.531044   7.085067   6.676288   5.002601   4.911174
                   11         12         13         14         15
    11  H    0.000000
    12  C    3.259522   0.000000
    13  H    3.321862   1.089403   0.000000
    14  H    3.566937   1.087224   1.776104   0.000000
    15  H    4.201488   1.089482   1.768774   1.761021   0.000000
    16  Cl   3.382167   2.718845   3.702243   2.848899   2.933162
    17  H    3.142447   2.572326   2.408881   3.619071   2.787316
    18  N    2.968771   4.496721   4.922291   5.117366   4.883552
    19  C    4.178971   5.933356   6.336774   6.553686   6.265597
    20  H    2.947621   4.177293   4.791148   4.638756   4.557417
    21  H    5.051488   6.346685   6.791711   7.038098   6.502524
    22  H    4.492027   6.424222   6.920441   6.899049   6.810303
    23  H    4.321625   6.420070   6.659583   7.087712   6.831499
                   16         17         18         19         20
    16  Cl   0.000000
    17  H    3.689259   0.000000
    18  N    3.184379   3.355724   0.000000
    19  C    4.426443   4.573526   1.444863   0.000000
    20  H    2.368923   3.643918   1.005339   2.095981   0.000000
    21  H    4.785195   4.857285   2.121142   1.094536   2.678561
    22  H    4.580386   5.408039   2.067886   1.088775   2.300811
    23  H    5.255933   4.786348   2.090536   1.089254   2.932404
                   21         22         23
    21  H    0.000000
    22  H    1.773992   0.000000
    23  H    1.766461   1.768253   0.000000
 Stoichiometry    C6H13ClN2O
 Framework group  C1[X(C6H13ClN2O)]
 Deg. of freedom    63
 Full point group                 C1      NOp   1
 Largest Abelian subgroup         C1      NOp   1
 Largest concise Abelian subgroup C1      NOp   1
                         Standard orientation:                         
 ---------------------------------------------------------------------
 Center     Atomic      Atomic             Coordinates (Angstroms)
 Number     Number       Type             X           Y           Z
 ---------------------------------------------------------------------
      1          6           0        0.252969   -0.686439   -0.988872
      2          6           0        1.592259   -0.613769   -0.468802
      3          8           0        2.493059   -1.365090   -0.878942
      4          6           0       -0.903141   -0.028029   -0.591172
      5          6           0       -2.644641   -1.084899    1.468858
      6          1           0       -2.680531   -1.430269    2.502048
      7          1           0       -3.416421   -0.333729    1.319988
      8          1           0       -2.824321   -1.928639    0.806718
      9          7           0       -1.332711   -0.502089    1.171428
     10          1           0       -1.163751    0.303791    1.763708
     11          1           0       -0.593921   -1.173429    1.352208
     12          6           0       -2.162091   -0.300829   -1.368802
     13          1           0       -2.301811   -1.374429   -1.489882
     14          1           0       -3.041791    0.125951   -0.893362
     15          1           0       -2.061291    0.148911   -2.355992
     16         17           0       -0.813931    1.787581   -0.267382
     17          1           0        0.095359   -1.489449   -1.697382
     18          7           0        1.868239    0.273380    0.540968
     19          6           0        3.224989    0.484590    0.990688
     20          1           0        1.229569    1.039241    0.668508
     21          1           0        3.865269    0.907040    0.209928
     22          1           0        3.207619    1.170110    1.836378
     23          1           0        3.667589   -0.456030    1.315978
 ---------------------------------------------------------------------
 Rotational constants (GHZ):           1.5061731           0.6839527           0.6483452
 Standard basis: def2TZVP (5D, 7F)
 There are   444 symmetry adapted cartesian basis functions of A   symmetry.
 There are   394 symmetry adapted basis functions of A   symmetry.
   394 basis functions,   632 primitive gaussians,   444 cartesian basis functions
    44 alpha electrons       44 beta electrons
       nuclear repulsion energy       659.2780229466 Hartrees.
 NAtoms=   23 NActive=   23 NUniq=   23 SFac= 1.00D+00 NAtFMM=   60 NAOKFM=F Big=F
 Integral buffers will be    131072 words long.
 Raffenetti 2 integral format.
 Two-electron integral symmetry is turned on.
 Nuclear repulsion after empirical dispersion term =      659.2629376655 Hartrees.
 Force inversion solution in PCM.
 ------------------------------------------------------------------------------
 Polarizable Continuum Model (PCM)
 =================================
 Model                : PCM.
 Atomic radii         : UFF (Universal Force Field).
 Polarization charges : Total charges.
 Charge compensation  : None.
 Solution method      : Matrix inversion.
 Cavity type          : Scaled VdW (van der Waals Surface) (Alpha=1.100).
 Cavity algorithm     : GePol (No added spheres)
                        Default sphere list used, NSphG=   23.
                        Lebedev-Laikov grids with approx.  5.0 points / Ang**2.
                        Smoothing algorithm: York/Karplus (Gamma=1.0000).
                        Polarization charges: spherical gaussians, with
                                              point-specific exponents (IZeta= 3).
                        Self-potential: point-specific (ISelfS= 7).
                        Self-field    : sphere-specific E.n sum rule (ISelfD= 2).
 1st derivatives      : Analytical E(r).r(x)/FMM algorithm (CHGder, D1EAlg=3).
                        Cavity 1st derivative terms included.
 2nd derivatives      : Analytical E(r).r(xy)/FMM algorithm (CHGder, D2EAlg=3).
                        Cavity 2nd derivative terms included.
 Solvent              : Water, Eps=  78.355300 Eps(inf)=   1.777849
 ------------------------------------------------------------------------------
 One-electron integrals computed using PRISM.
   1 Symmetry operations used in ECPInt.
 ECPInt:  NShTT=   13530 NPrTT=   41028 LenC2=   12863 LenP2D=   29743.
 LDataN:  DoStor=T MaxTD1= 6 Len=  172
 NBasis=   394 RedAO= T EigKep=  7.61D-05  NBF=   394
 NBsUse=   394 1.00D-06 EigRej= -1.00D+00 NBFU=   394
 ExpMin= 9.52D-02 ExpMax= 6.95D+04 ExpMxC= 2.37D+03 IAcc=3 IRadAn=         5 AccDes= 0.00D+00
 Harris functional with IExCor= 4639 and IRadAn=       5 diagonalized for initial guess.
 HarFok:  IExCor= 4639 AccDes= 0.00D+00 IRadAn=         5 IDoV= 1 UseB2=F ITyADJ=14
 ICtDFT=  3500011 ScaDFX=  1.000000  1.000000  1.000000  1.000000
 FoFCou: FMM=F IPFlag=           0 FMFlag=      100000 FMFlg1=           0
         NFxFlg=           0 DoJE=T BraDBF=F KetDBF=T FulRan=T
         wScrn=  0.000000 ICntrl=       500 IOpCl=  0 I1Cent=   200000004 NGrid=           0
         NMat0=    1 NMatS0=      1 NMatT0=    0 NMatD0=    1 NMtDS0=    0 NMtDT0=    0
 Petite list used in FoFCou.
 Requested convergence on RMS density matrix=1.00D-08 within 128 cycles.
 Requested convergence on MAX density matrix=1.00D-06.
 Requested convergence on             energy=1.00D-06.
 No special actions if energy rises.
 Inv3:  Mode=1 IEnd=     8875200.
 Iteration    1 A*A^-1 deviation from unit magnitude is 3.11D-15 for     47.
 Iteration    1 A*A^-1 deviation from orthogonality  is 2.22D-15 for   1561    869.
 Iteration    1 A^-1*A deviation from unit magnitude is 3.11D-15 for     47.
 Iteration    1 A^-1*A deviation from orthogonality  is 6.00D-13 for   1290   1205.
 Error on total polarization charges =  0.01325
 SCF Done:  E(RwB97XD) =  -881.400993156     A.U. after   14 cycles
            NFock= 14  Conv=0.95D-08     -V/T= 2.0031
 DoSCS=F DFT=T ScalE2(SS,OS)=  1.000000  1.000000
 Range of M.O.s used for correlation:     1   394
 NBasis=   394 NAE=    44 NBE=    44 NFC=     0 NFV=     0
 NROrb=    394 NOA=    44 NOB=    44 NVA=   350 NVB=   350

 **** Warning!!: The largest alpha MO coefficient is  0.21241028D+02

   1 Symmetry operations used in ECPInt.
 ECPInt:  NShTT=   13530 NPrTT=   41028 LenC2=   12863 LenP2D=   29743.
 LDataN:  DoStor=T MaxTD1= 7 Len=  274
 Symmetrizing basis deriv contribution to polar:
 IMax=3 JMax=2 DiffMx= 0.00D+00
 G2DrvN: will do    24 centers at a time, making    1 passes.
 Calling FoFCou, ICntrl=  3107 FMM=F I1Cent=   0 AccDes= 0.00D+00.
 NEqPCM:  Using equilibrium solvation (IEInf=0, Eps=  78.3553, EpsInf=   1.7778)
 G2PCM: DoFxE=T DoFxN=T DoGrad=T DoDP/DQ/DG/TGxP=FFFF NFrqRd=   0 IEInf=0 SqF1=F DoCFld=F IF1Alg=4.
 End of G2Drv F.D. properties file   721 does not exist.
 End of G2Drv F.D. properties file   722 does not exist.
 End of G2Drv F.D. properties file   788 does not exist.
          IDoAtm=11111111111111111111111
 NEqPCM:  Using equilibrium solvation (IEInf=0, Eps=  78.3553, EpsInf=   1.7778)
          Differentiating once with respect to nuclear coordinates.
 Keep R1 ints in memory in canonical form, NReq=6099324644.
          There are    72 degrees of freedom in the 1st order CPHF.  IDoFFX=6 NUNeed=     0.
     66 vectors produced by pass  0 Test12= 2.14D-14 1.39D-09 XBig12= 9.71D-02 1.49D-01.
 AX will form    66 AO Fock derivatives at one time.
     66 vectors produced by pass  1 Test12= 2.14D-14 1.39D-09 XBig12= 2.87D-02 2.64D-02.
     66 vectors produced by pass  2 Test12= 2.14D-14 1.39D-09 XBig12= 6.43D-04 4.21D-03.
     66 vectors produced by pass  3 Test12= 2.14D-14 1.39D-09 XBig12= 8.50D-06 4.01D-04.
     66 vectors produced by pass  4 Test12= 2.14D-14 1.39D-09 XBig12= 8.83D-08 3.05D-05.
     66 vectors produced by pass  5 Test12= 2.14D-14 1.39D-09 XBig12= 7.28D-10 2.38D-06.
     65 vectors produced by pass  6 Test12= 2.14D-14 1.39D-09 XBig12= 5.11D-12 2.28D-07.
     19 vectors produced by pass  7 Test12= 2.14D-14 1.39D-09 XBig12= 3.41D-14 1.96D-08.
      1 vectors produced by pass  8 Test12= 2.14D-14 1.39D-09 XBig12= 2.09D-16 2.06D-09.
 InvSVY:  IOpt=1 It=  1 EMax= 3.89D-16
 Solved reduced A of dimension   481 with    72 vectors.
 End of Minotr F.D. properties file   721 does not exist.
 End of Minotr F.D. properties file   722 does not exist.
 End of Minotr F.D. properties file   788 does not exist.

 **********************************************************************

            Population analysis using the SCF density.

 **********************************************************************

 Orbital symmetries:
       Occupied  (A) (A) (A) (A) (A) (A) (A) (A) (A) (A) (A) (A)
                 (A) (A) (A) (A) (A) (A) (A) (A) (A) (A) (A) (A)
                 (A) (A) (A) (A) (A) (A) (A) (A) (A) (A) (A) (A)
                 (A) (A) (A) (A) (A) (A) (A) (A)
       Virtual   (A) (A) (A) (A) (A) (A) (A) (A) (A) (A) (A) (A)
                 (A) (A) (A) (A) (A) (A) (A) (A) (A) (A) (A) (A)
                 (A) (A) (A) (A) (A) (A) (A) (A) (A) (A) (A) (A)
                 (A) (A) (A) (A) (A) (A) (A) (A) (A) (A) (A) (A)
                 (A) (A) (A) (A) (A) (A) (A) (A) (A) (A) (A) (A)
                 (A) (A) (A) (A) (A) (A) (A) (A) (A) (A) (A) (A)
                 (A) (A) (A) (A) (A) (A) (A) (A) (A) (A) (A) (A)
                 (A) (A) (A) (A) (A) (A) (A) (A) (A) (A) (A) (A)
                 (A) (A) (A) (A) (A) (A) (A) (A) (A) (A) (A) (A)
                 (A) (A) (A) (A) (A) (A) (A) (A) (A) (A) (A) (A)
                 (A) (A) (A) (A) (A) (A) (A) (A) (A) (A) (A) (A)
                 (A) (A) (A) (A) (A) (A) (A) (A) (A) (A) (A) (A)
                 (A) (A) (A) (A) (A) (A) (A) (A) (A) (A) (A) (A)
                 (A) (A) (A) (A) (A) (A) (A) (A) (A) (A) (A) (A)
                 (A) (A) (A) (A) (A) (A) (A) (A) (A) (A) (A) (A)
                 (A) (A) (A) (A) (A) (A) (A) (A) (A) (A) (A) (A)
                 (A) (A) (A) (A) (A) (A) (A) (A) (A) (A) (A) (A)
                 (A) (A) (A) (A) (A) (A) (A) (A) (A) (A) (A) (A)
                 (A) (A) (A) (A) (A) (A) (A) (A) (A) (A) (A) (A)
                 (A) (A) (A) (A) (A) (A) (A) (A) (A) (A) (A) (A)
                 (A) (A) (A) (A) (A) (A) (A) (A) (A) (A) (A) (A)
                 (A) (A) (A) (A) (A) (A) (A) (A) (A) (A) (A) (A)
                 (A) (A) (A) (A) (A) (A) (A) (A) (A) (A) (A) (A)
                 (A) (A) (A) (A) (A) (A) (A) (A) (A) (A) (A) (A)
                 (A) (A) (A) (A) (A) (A) (A) (A) (A) (A) (A) (A)
                 (A) (A) (A) (A) (A) (A) (A) (A) (A) (A) (A) (A)
                 (A) (A) (A) (A) (A) (A) (A) (A) (A) (A) (A) (A)
                 (A) (A) (A) (A) (A) (A) (A) (A) (A) (A) (A) (A)
                 (A) (A) (A) (A) (A) (A) (A) (A) (A) (A) (A) (A)
                 (A) (A)
 The electronic state is 1-A.
 Alpha  occ. eigenvalues -- -101.69315 -19.18891 -14.49784 -14.43626 -10.40443
 Alpha  occ. eigenvalues --  -10.36653 -10.32472 -10.30177 -10.29058 -10.24404
 Alpha  occ. eigenvalues --   -9.57934  -7.32512  -7.31746  -7.31716  -1.11439
 Alpha  occ. eigenvalues --   -1.05384  -1.00278  -0.96301  -0.87140  -0.82552
 Alpha  occ. eigenvalues --   -0.79783  -0.76950  -0.67880  -0.65181  -0.64179
 Alpha  occ. eigenvalues --   -0.59947  -0.58080  -0.56163  -0.55159  -0.52881
 Alpha  occ. eigenvalues --   -0.51701  -0.50281  -0.49491  -0.49344  -0.47005
 Alpha  occ. eigenvalues --   -0.46568  -0.46231  -0.44756  -0.44334  -0.39768
 Alpha  occ. eigenvalues --   -0.39294  -0.33528  -0.32507  -0.27099
 Alpha virt. eigenvalues --    0.05858   0.07494   0.09914   0.12870   0.14231
 Alpha virt. eigenvalues --    0.14928   0.15471   0.15924   0.17171   0.18391
 Alpha virt. eigenvalues --    0.18690   0.19501   0.19900   0.20967   0.21673
 Alpha virt. eigenvalues --    0.22770   0.23624   0.24556   0.25112   0.26755
 Alpha virt. eigenvalues --    0.27143   0.28924   0.30720   0.30771   0.30912
 Alpha virt. eigenvalues --    0.31793   0.32430   0.34685   0.35302   0.35803
 Alpha virt. eigenvalues --    0.36964   0.37494   0.39110   0.40541   0.40710
 Alpha virt. eigenvalues --    0.41846   0.43253   0.44191   0.44588   0.46040
 Alpha virt. eigenvalues --    0.46534   0.47110   0.47550   0.49067   0.49415
 Alpha virt. eigenvalues --    0.50766   0.51018   0.51420   0.52123   0.52861
 Alpha virt. eigenvalues --    0.53218   0.53726   0.55390   0.56065   0.56267
 Alpha virt. eigenvalues --    0.56806   0.57861   0.58067   0.59472   0.60837
 Alpha virt. eigenvalues --    0.60987   0.61245   0.62968   0.63993   0.64585
 Alpha virt. eigenvalues --    0.64752   0.66808   0.67450   0.69207   0.70214
 Alpha virt. eigenvalues --    0.71268   0.73980   0.75061   0.76340   0.78546
 Alpha virt. eigenvalues --    0.79357   0.79904   0.82888   0.84897   0.86025
 Alpha virt. eigenvalues --    0.88632   0.91933   0.92874   0.94252   0.95550
 Alpha virt. eigenvalues --    0.96574   0.96765   0.98155   0.98879   1.02062
 Alpha virt. eigenvalues --    1.04095   1.04615   1.06787   1.08569   1.11348
 Alpha virt. eigenvalues --    1.12968   1.14535   1.15084   1.16523   1.17926
 Alpha virt. eigenvalues --    1.19009   1.21490   1.21763   1.24160   1.25458
 Alpha virt. eigenvalues --    1.31137   1.34525   1.35321   1.38668   1.41293
 Alpha virt. eigenvalues --    1.41526   1.43991   1.46358   1.46992   1.48337
 Alpha virt. eigenvalues --    1.49995   1.52242   1.53435   1.54025   1.57155
 Alpha virt. eigenvalues --    1.59319   1.59954   1.61063   1.61217   1.62229
 Alpha virt. eigenvalues --    1.62823   1.63930   1.64463   1.65292   1.65707
 Alpha virt. eigenvalues --    1.66607   1.67432   1.69289   1.70929   1.72021
 Alpha virt. eigenvalues --    1.73414   1.76938   1.79895   1.80291   1.81944
 Alpha virt. eigenvalues --    1.83507   1.86607   1.87560   1.89699   1.90165
 Alpha virt. eigenvalues --    1.92509   1.92890   1.94177   1.95010   1.97102
 Alpha virt. eigenvalues --    1.98422   1.98577   1.99927   2.00360   2.02754
 Alpha virt. eigenvalues --    2.03892   2.05575   2.05849   2.07268   2.09141
 Alpha virt. eigenvalues --    2.10148   2.10405   2.12717   2.13722   2.14979
 Alpha virt. eigenvalues --    2.16613   2.17598   2.18085   2.20860   2.21551
 Alpha virt. eigenvalues --    2.25282   2.27826   2.29542   2.30679   2.32319
 Alpha virt. eigenvalues --    2.34191   2.34638   2.35375   2.36486   2.37681
 Alpha virt. eigenvalues --    2.39778   2.40826   2.40979   2.41520   2.42583
 Alpha virt. eigenvalues --    2.43684   2.45269   2.46232   2.49530   2.50014
 Alpha virt. eigenvalues --    2.52956   2.54228   2.55289   2.57096   2.58424
 Alpha virt. eigenvalues --    2.61390   2.62558   2.63831   2.64604   2.65092
 Alpha virt. eigenvalues --    2.66196   2.67987   2.70556   2.71428   2.73011
 Alpha virt. eigenvalues --    2.74672   2.75790   2.78011   2.79828   2.80908
 Alpha virt. eigenvalues --    2.81561   2.84360   2.85943   2.87089   2.87685
 Alpha virt. eigenvalues --    2.89995   2.93581   2.95939   2.96565   3.00651
 Alpha virt. eigenvalues --    3.01345   3.02379   3.05107   3.06896   3.08991
 Alpha virt. eigenvalues --    3.10170   3.12808   3.13564   3.15910   3.17607
 Alpha virt. eigenvalues --    3.18977   3.20178   3.22017   3.22789   3.22828
 Alpha virt. eigenvalues --    3.24217   3.25908   3.27241   3.27596   3.30632
 Alpha virt. eigenvalues --    3.33173   3.34127   3.35245   3.36273   3.39023
 Alpha virt. eigenvalues --    3.39303   3.39611   3.40894   3.42022   3.43682
 Alpha virt. eigenvalues --    3.43886   3.49037   3.50598   3.52037   3.53450
 Alpha virt. eigenvalues --    3.56614   3.59216   3.60351   3.62115   3.63252
 Alpha virt. eigenvalues --    3.67729   3.68441   3.70793   3.71396   3.73597
 Alpha virt. eigenvalues --    3.78501   3.79344   3.80780   3.83375   3.86480
 Alpha virt. eigenvalues --    3.89548   3.91075   3.92766   3.93890   3.97925
 Alpha virt. eigenvalues --    4.00353   4.05745   4.10875   4.13173   4.15794
 Alpha virt. eigenvalues --    4.16356   4.19920   4.20963   4.27088   4.27120
 Alpha virt. eigenvalues --    4.28271   4.30615   4.35730   4.36700   4.42951
 Alpha virt. eigenvalues --    4.45134   4.46565   4.50128   4.53019   4.54599
 Alpha virt. eigenvalues --    4.57394   4.65586   4.69170   4.71721   4.85466
 Alpha virt. eigenvalues --    4.86059   4.88972   4.93888   4.95058   4.96804
 Alpha virt. eigenvalues --    5.00156   5.03340   5.09887   5.10718   5.12321
 Alpha virt. eigenvalues --    5.16630   5.18737   5.20640   5.21912   5.22969
 Alpha virt. eigenvalues --    5.31500   5.32831   5.38755   5.39144   5.41587
 Alpha virt. eigenvalues --    5.53626   5.54940   5.58208   5.60581   5.68181
 Alpha virt. eigenvalues --    5.74843   5.86741   5.95141   6.06058   6.20250
 Alpha virt. eigenvalues --    6.43497   6.51966   6.71282   6.84870   6.93658
 Alpha virt. eigenvalues --    7.17828   7.21952  10.87860  10.94461  11.40546
 Alpha virt. eigenvalues --   22.46618  22.52142  22.53783  22.55643  22.83146
 Alpha virt. eigenvalues --   23.44561  25.58781  32.22362  32.54358  44.06131
          Condensed to atoms (all electrons):
               1          2          3          4          5          6
     1  C    6.018991   0.337575  -0.133592   0.242353   0.004262  -0.001095
     2  C    0.337575   4.421757   0.673149  -0.005468  -0.000195   0.000064
     3  O   -0.133592   0.673149   8.134093   0.013837  -0.000015   0.000002
     4  C    0.242353  -0.005468   0.013837   5.098424  -0.000092   0.000837
     5  C    0.004262  -0.000195  -0.000015  -0.000092   4.877554   0.401596
     6  H   -0.001095   0.000064   0.000002   0.000837   0.401596   0.495098
     7  H    0.001750  -0.000121   0.000000  -0.001116   0.424214  -0.016969
     8  H   -0.001105   0.000184  -0.000006   0.001172   0.414646  -0.019987
     9  N   -0.074439  -0.002005   0.000390   0.088573   0.225024  -0.015724
    10  H   -0.004329   0.002527  -0.000022  -0.001107  -0.018540  -0.005267
    11  H    0.008735  -0.005517  -0.000628  -0.019016  -0.012583  -0.005572
    12  C   -0.059533   0.007001  -0.000663   0.254304  -0.002630   0.001117
    13  H   -0.010336  -0.000155  -0.000042  -0.039972  -0.004236  -0.000068
    14  H    0.017075  -0.000344   0.000008  -0.048184   0.001426   0.000558
    15  H   -0.010490   0.000226   0.000006  -0.026281  -0.000293   0.000010
    16  Cl  -0.090252   0.008365  -0.000227   0.291170   0.001935  -0.000391
    17  H    0.421682  -0.042248   0.012128  -0.047558  -0.000131  -0.000012
    18  N   -0.153274   0.306573  -0.153414   0.024449   0.000153   0.000055
    19  C    0.012689  -0.043505   0.011997  -0.002565   0.000013  -0.000003
    20  H   -0.027347  -0.013211   0.004885   0.007264   0.000065  -0.000012
    21  H   -0.001374   0.000460   0.003242   0.000832  -0.000000   0.000000
    22  H    0.001373   0.009840   0.002786  -0.000442  -0.000000  -0.000000
    23  H    0.000868  -0.014857   0.008643  -0.000648  -0.000001  -0.000000
               7          8          9         10         11         12
     1  C    0.001750  -0.001105  -0.074439  -0.004329   0.008735  -0.059533
     2  C   -0.000121   0.000184  -0.002005   0.002527  -0.005517   0.007001
     3  O    0.000000  -0.000006   0.000390  -0.000022  -0.000628  -0.000663
     4  C   -0.001116   0.001172   0.088573  -0.001107  -0.019016   0.254304
     5  C    0.424214   0.414646   0.225024  -0.018540  -0.012583  -0.002630
     6  H   -0.016969  -0.019987  -0.015724  -0.005267  -0.005572   0.001117
     7  H    0.493874  -0.024614  -0.037489  -0.005576   0.005429  -0.007893
     8  H   -0.024614   0.508071  -0.037526   0.005862  -0.005270   0.001564
     9  N   -0.037489  -0.037526   6.543357   0.344805   0.346427  -0.029436
    10  H   -0.005576   0.005862   0.344805   0.411878  -0.019172   0.002952
    11  H    0.005429  -0.005270   0.346427  -0.019172   0.409920  -0.000485
    12  C   -0.007893   0.001564  -0.029436   0.002952  -0.000485   5.006531
    13  H    0.000267  -0.000295   0.000234  -0.000153   0.000134   0.425010
    14  H   -0.000567  -0.003649  -0.001569  -0.000340   0.000024   0.417900
    15  H   -0.000104   0.000204   0.004409  -0.000087  -0.000199   0.407872
    16  Cl   0.002762   0.000411  -0.088844   0.005503   0.004742  -0.041787
    17  H    0.000030  -0.000055  -0.000175  -0.000278   0.000719  -0.012072
    18  N   -0.000010  -0.000064   0.006261  -0.000821   0.006675  -0.000801
    19  C    0.000000   0.000001  -0.000038  -0.000044   0.000148   0.000049
    20  H    0.000011  -0.000001  -0.003857   0.000613  -0.000459   0.001076
    21  H   -0.000000  -0.000000   0.000041   0.000012   0.000051   0.000015
    22  H    0.000000   0.000000  -0.000022   0.000019  -0.000033   0.000007
    23  H    0.000000   0.000000  -0.000034  -0.000027  -0.000184  -0.000005
              13         14         15         16         17         18
     1  C   -0.010336   0.017075  -0.010490  -0.090252   0.421682  -0.153274
     2  C   -0.000155  -0.000344   0.000226   0.008365  -0.042248   0.306573
     3  O   -0.000042   0.000008   0.000006  -0.000227   0.012128  -0.153414
     4  C   -0.039972  -0.048184  -0.026281   0.291170  -0.047558   0.024449
     5  C   -0.004236   0.001426  -0.000293   0.001935  -0.000131   0.000153
     6  H   -0.000068   0.000558   0.000010  -0.000391  -0.000012   0.000055
     7  H    0.000267  -0.000567  -0.000104   0.002762   0.000030  -0.000010
     8  H   -0.000295  -0.003649   0.000204   0.000411  -0.000055  -0.000064
     9  N    0.000234  -0.001569   0.004409  -0.088844  -0.000175   0.006261
    10  H   -0.000153  -0.000340  -0.000087   0.005503  -0.000278  -0.000821
    11  H    0.000134   0.000024  -0.000199   0.004742   0.000719   0.006675
    12  C    0.425010   0.417900   0.407872  -0.041787  -0.012072  -0.000801
    13  H    0.504346  -0.023736  -0.011992   0.005705   0.000117  -0.000048
    14  H   -0.023736   0.512598  -0.018208  -0.003298   0.000535   0.000044
    15  H   -0.011992  -0.018208   0.491685   0.002070  -0.000620   0.000010
    16  Cl   0.005705  -0.003298   0.002070  17.079313   0.005054  -0.025107
    17  H    0.000117   0.000535  -0.000620   0.005054   0.525987   0.011490
    18  N   -0.000048   0.000044   0.000010  -0.025107   0.011490   6.815671
    19  C   -0.000001  -0.000003  -0.000001   0.002956  -0.000549   0.254295
    20  H   -0.000039  -0.000026  -0.000004   0.022429  -0.000594   0.356295
    21  H   -0.000000   0.000000  -0.000001  -0.000093  -0.000107  -0.057801
    22  H    0.000000  -0.000000  -0.000000   0.000158  -0.000009  -0.032953
    23  H    0.000000  -0.000000   0.000000  -0.000056   0.000006  -0.038028
              19         20         21         22         23
     1  C    0.012689  -0.027347  -0.001374   0.001373   0.000868
     2  C   -0.043505  -0.013211   0.000460   0.009840  -0.014857
     3  O    0.011997   0.004885   0.003242   0.002786   0.008643
     4  C   -0.002565   0.007264   0.000832  -0.000442  -0.000648
     5  C    0.000013   0.000065  -0.000000  -0.000000  -0.000001
     6  H   -0.000003  -0.000012   0.000000  -0.000000  -0.000000
     7  H    0.000000   0.000011  -0.000000   0.000000   0.000000
     8  H    0.000001  -0.000001  -0.000000   0.000000   0.000000
     9  N   -0.000038  -0.003857   0.000041  -0.000022  -0.000034
    10  H   -0.000044   0.000613   0.000012   0.000019  -0.000027
    11  H    0.000148  -0.000459   0.000051  -0.000033  -0.000184
    12  C    0.000049   0.001076   0.000015   0.000007  -0.000005
    13  H   -0.000001  -0.000039  -0.000000   0.000000   0.000000
    14  H   -0.000003  -0.000026   0.000000  -0.000000  -0.000000
    15  H   -0.000001  -0.000004  -0.000001  -0.000000   0.000000
    16  Cl   0.002956   0.022429  -0.000093   0.000158  -0.000056
    17  H   -0.000549  -0.000594  -0.000107  -0.000009   0.000006
    18  N    0.254295   0.356295  -0.057801  -0.032953  -0.038028
    19  C    4.806503  -0.027760   0.429117   0.400121   0.414641
    20  H   -0.027760   0.458643  -0.001972  -0.007945   0.006659
    21  H    0.429117  -0.001972   0.579933  -0.025810  -0.044459
    22  H    0.400121  -0.007945  -0.025810   0.538180  -0.020565
    23  H    0.414641   0.006659  -0.044459  -0.020565   0.561600
 Mulliken charges:
               1
     1  C   -0.500187
     2  C    0.359904
     3  O   -0.576559
     4  C    0.169232
     5  C   -0.312172
     6  H    0.165763
     7  H    0.166121
     8  H    0.160457
     9  N   -0.268362
    10  H    0.281593
    11  H    0.286118
    12  C   -0.370090
    13  H    0.155260
    14  H    0.149757
    15  H    0.161791
    16  Cl  -0.182516
    17  H    0.126659
    18  N   -0.319650
    19  C   -0.258061
    20  H    0.225290
    21  H    0.117913
    22  H    0.135294
    23  H    0.126444
 Sum of Mulliken charges =  -0.00000
 Mulliken charges with hydrogens summed into heavy atoms:
               1
     1  C   -0.373528
     2  C    0.359904
     3  O   -0.576559
     4  C    0.169232
     5  C    0.180169
     9  N    0.299349
    12  C    0.096717
    16  Cl  -0.182516
    18  N   -0.094360
    19  C    0.121591
 APT charges:
               1
     1  C   -0.669941
     2  C   -0.371564
     3  O   -0.076086
     4  C   -0.048068
     5  C   -1.350555
     6  H    0.608070
     7  H    0.472503
     8  H    0.388151
     9  N   -0.379611
    10  H    0.461099
    11  H    0.371267
    12  C   -1.349687
    13  H    0.423186
    14  H    0.473104
    15  H    0.448210
    16  Cl  -0.012071
    17  H    0.434898
    18  N   -0.072353
    19  C   -1.380342
    20  H    0.234867
    21  H    0.465740
    22  H    0.464989
    23  H    0.464194
 Sum of APT charges =  -0.00000
 APT charges with hydrogens summed into heavy atoms:
               1
     1  C   -0.235043
     2  C   -0.371564
     3  O   -0.076086
     4  C   -0.048068
     5  C    0.118169
     9  N    0.452754
    12  C   -0.005187
    16  Cl  -0.012071
    18  N    0.162514
    19  C    0.014581
 Electronic spatial extent (au):  <R**2>=           2039.3559
 Charge=             -0.0000 electrons
 Dipole moment (field-independent basis, Debye):
    X=             -8.9915    Y=              1.1850    Z=              6.6453  Tot=             11.2433
 Quadrupole moment (field-independent basis, Debye-Ang):
   XX=            -70.0266   YY=            -72.9524   ZZ=            -64.2257
   XY=             15.7562   XZ=              4.3347   YZ=             -3.4202
 Traceless Quadrupole moment (field-independent basis, Debye-Ang):
   XX=             -0.9584   YY=             -3.8842   ZZ=              4.8426
   XY=             15.7562   XZ=              4.3347   YZ=             -3.4202
 Octapole moment (field-independent basis, Debye-Ang**2):
  XXX=            -60.7651  YYY=              6.0034  ZZZ=             22.9283  XYY=            -17.4064
  XXY=             20.5840  XXZ=             32.6529  XZZ=            -20.4333  YZZ=              0.9734
  YYZ=             13.9366  XYZ=             -5.0128
 Hexadecapole moment (field-independent basis, Debye-Ang**3):
 XXXX=          -1656.4169 YYYY=           -529.4570 ZZZZ=           -459.4717 XXXY=             91.7776
 XXXZ=             29.0706 YYYX=             35.9832 YYYZ=             -9.4255 ZZZX=             -9.7303
 ZZZY=            -11.2292 XXYY=           -388.8278 XXZZ=           -340.9920 YYZZ=           -162.7580
 XXYZ=            -30.3211 YYXZ=             10.0910 ZZXY=             20.8598
 N-N= 6.592629376655D+02 E-N=-3.395074924478D+03  KE= 8.786873302502D+02
  Exact polarizability:   0.000   0.000   0.000   0.000   0.000   0.000
 Approx polarizability: 132.242  -7.169 121.460  -6.995   7.564 114.193
   1 Symmetry operations used in ECPInt.
 ECPInt:  NShTT=   13530 NPrTT=   41028 LenC2=   12863 LenP2D=   29743.
 LDataN:  DoStor=T MaxTD1= 8 Len=  415
 D2PCM: PCM CHGder 2nd derivatives, FixD1E=F FixD2E=F DoIter=F DoCFld=F I1PDM=0
 Calling FoFJK, ICntrl=    100147 FMM=F ISym2X=0 I1Cent= 0 IOpClX= 0 NMat=1 NMatS=1 NMatT=0.
 ***** Axes restored to original set *****
 -------------------------------------------------------------------
 Center     Atomic                   Forces (Hartrees/Bohr)
 Number     Number              X              Y              Z
 -------------------------------------------------------------------
      1        6          -0.000008806   -0.000009031   -0.000004751
      2        6          -0.000006106   -0.000000514   -0.000000280
      3        8           0.000001322    0.000007763   -0.000008826
      4        6          -0.000292845    0.000319972    0.001189190
      5        6           0.000003744   -0.000005547    0.000003838
      6        1           0.000002879    0.000000845    0.000003056
      7        1           0.000001950   -0.000004054    0.000007412
      8        1          -0.000001618   -0.000001062   -0.000000846
      9        7           0.000283973   -0.000307654   -0.001187626
     10        1           0.000004942   -0.000004674    0.000009566
     11        1          -0.000000480    0.000001878   -0.000000839
     12        6          -0.000001559   -0.000004696    0.000004855
     13        1          -0.000004861   -0.000012602    0.000001974
     14        1           0.000001107   -0.000010675    0.000005828
     15        1          -0.000004574   -0.000013018    0.000003549
     16       17           0.000008824   -0.000000559    0.000004463
     17        1          -0.000006081   -0.000002915   -0.000003117
     18        7           0.000001457    0.000006088   -0.000008703
     19        6           0.000004763    0.000007901   -0.000005621
     20        1           0.000000969    0.000002967    0.000001107
     21        1           0.000001383    0.000008708   -0.000003385
     22        1           0.000006859    0.000011271   -0.000002338
     23        1           0.000002757    0.000009606   -0.000008504
 -------------------------------------------------------------------
 Cartesian Forces:  Max     0.001189190 RMS     0.000215021
 FormGI is forming the generalized inverse of G from B-inverse, IUseBI=4.

 GradGradGradGradGradGradGradGradGradGradGradGradGradGradGradGradGradGrad
 Berny optimization.
 Internal  Forces:  Max     0.001255884 RMS     0.000120883
 Search for a saddle point.
 Step number   1 out of a maximum of   70
 All quantities printed in internal units (Hartrees-Bohrs-Radians)
 Swapping is turned off.
 Second derivative matrix not updated -- analytic derivatives used.
 ITU=  0
     Eigenvalues ---   -0.03673  -0.00254   0.00107   0.00254   0.00374
     Eigenvalues ---    0.00419   0.00708   0.00938   0.01425   0.01928
     Eigenvalues ---    0.02174   0.03474   0.04169   0.04387   0.04581
     Eigenvalues ---    0.04752   0.04830   0.05807   0.05969   0.06138
     Eigenvalues ---    0.06323   0.08202   0.08970   0.09080   0.11792
     Eigenvalues ---    0.12025   0.12092   0.12396   0.12943   0.13315
     Eigenvalues ---    0.13991   0.15219   0.15881   0.17081   0.17191
     Eigenvalues ---    0.17557   0.17614   0.18086   0.19488   0.20622
     Eigenvalues ---    0.25182   0.25517   0.31337   0.32040   0.32840
     Eigenvalues ---    0.34036   0.34379   0.34551   0.34640   0.34797
     Eigenvalues ---    0.34845   0.35062   0.35513   0.36264   0.36314
     Eigenvalues ---    0.38728   0.41465   0.44485   0.44928   0.45121
     Eigenvalues ---    0.47322   0.53974   0.72762
 Eigenvectors required to have negative eigenvalues:
                          R6        D10       R8        D7        D8
   1                    0.83567  -0.22301  -0.18490  -0.18255  -0.15485
                          A10       D5        D25       R2        D26
   1                   -0.15049  -0.11439  -0.11095  -0.10924  -0.10692
 RFO step:  Lambda0=2.998000969D-05 Lambda=-2.53867075D-03.
 Linear search not attempted -- option 19 set.
 Iteration  1 RMS(Cart)=  0.01690460 RMS(Int)=  0.00013073
 Iteration  2 RMS(Cart)=  0.00019774 RMS(Int)=  0.00000289
 Iteration  3 RMS(Cart)=  0.00000003 RMS(Int)=  0.00000289
 Variable       Old X    -DE/DX   Delta X   Delta X   Delta X     New X
                                 (Linear)    (Quad)   (Total)
    R1        2.71848  -0.00000   0.00000  -0.00157  -0.00157   2.71692
    R2        2.62411   0.00001   0.00000   0.00162   0.00162   2.62572
    R3        2.04549  -0.00000   0.00000  -0.00015  -0.00015   2.04534
    R4        2.34824  -0.00001   0.00000   0.00012   0.00012   2.34835
    R5        2.59302   0.00000   0.00000   0.00144   0.00144   2.59446
    R6        3.54344   0.00126   0.00000  -0.01267  -0.01267   3.53077
    R7        2.84345   0.00000   0.00000   0.00013   0.00013   2.84358
    R8        3.48921   0.00000   0.00000   0.00805   0.00805   3.49726
    R9        2.05976  -0.00000   0.00000  -0.00022  -0.00022   2.05954
   R10        2.05456  -0.00000   0.00000  -0.00027  -0.00027   2.05429
   R11        2.05504  -0.00000   0.00000  -0.00005  -0.00005   2.05499
   R12        2.77043   0.00000   0.00000   0.00026   0.00026   2.77069
   R13        1.91673  -0.00001   0.00000   0.00013   0.00013   1.91686
   R14        1.91711   0.00000   0.00000   0.00023   0.00023   1.91734
   R15        2.05867   0.00000   0.00000  -0.00008  -0.00008   2.05860
   R16        2.05456   0.00000   0.00000   0.00000   0.00000   2.05456
   R17        2.05882  -0.00000   0.00000  -0.00009  -0.00009   2.05873
   R18        2.73039  -0.00000   0.00000   0.00013   0.00013   2.73052
   R19        1.89982  -0.00000   0.00000   0.00024   0.00024   1.90005
   R20        2.06837   0.00000   0.00000   0.00003   0.00003   2.06841
   R21        2.05749  -0.00000   0.00000   0.00002   0.00002   2.05751
   R22        2.05839   0.00000   0.00000  -0.00002  -0.00002   2.05837
    A1        2.27525   0.00001   0.00000  -0.00248  -0.00248   2.27277
    A2        1.99289  -0.00001   0.00000   0.00218   0.00217   1.99506
    A3        2.00203  -0.00001   0.00000   0.00088   0.00087   2.00290
    A4        2.12354  -0.00001   0.00000   0.00162   0.00162   2.12516
    A5        2.07825   0.00001   0.00000  -0.00145  -0.00145   2.07679
    A6        2.08059  -0.00000   0.00000  -0.00020  -0.00020   2.08039
    A7        1.91779   0.00000   0.00000   0.00143   0.00143   1.91923
    A8        2.05174  -0.00000   0.00000  -0.00130  -0.00132   2.05043
    A9        2.06717   0.00001   0.00000  -0.00129  -0.00129   2.06587
   A10        1.82170   0.00000   0.00000   0.00532   0.00532   1.82702
   A11        1.66577  -0.00000   0.00000  -0.00020  -0.00020   1.66557
   A12        1.88528  -0.00000   0.00000  -0.00250  -0.00251   1.88277
   A13        1.90217   0.00000   0.00000   0.00038   0.00038   1.90254
   A14        1.90273  -0.00000   0.00000   0.00020   0.00020   1.90293
   A15        1.92595   0.00000   0.00000  -0.00160  -0.00160   1.92435
   A16        1.91282  -0.00000   0.00000   0.00077   0.00077   1.91359
   A17        1.91006  -0.00000   0.00000   0.00042   0.00042   1.91048
   A18        1.91003   0.00000   0.00000  -0.00015  -0.00015   1.90988
   A19        2.09003  -0.00000   0.00000  -0.00511  -0.00511   2.08492
   A20        1.88585   0.00000   0.00000   0.00291   0.00291   1.88876
   A21        1.73957   0.00000   0.00000   0.00213   0.00212   1.74169
   A22        1.92459   0.00000   0.00000   0.00092   0.00093   1.92551
   A23        1.93099   0.00000   0.00000  -0.00063  -0.00063   1.93036
   A24        1.87592  -0.00000   0.00000   0.00027   0.00026   1.87618
   A25        1.92135  -0.00000   0.00000   0.00037   0.00037   1.92172
   A26        1.96040   0.00000   0.00000   0.00020   0.00020   1.96059
   A27        1.89234   0.00000   0.00000  -0.00062  -0.00062   1.89171
   A28        1.90888  -0.00000   0.00000   0.00027   0.00027   1.90915
   A29        1.89439  -0.00000   0.00000  -0.00013  -0.00013   1.89425
   A30        1.88500   0.00000   0.00000  -0.00012  -0.00012   1.88488
   A31        2.10880  -0.00001   0.00000  -0.00076  -0.00077   2.10803
   A32        2.04666   0.00000   0.00000  -0.00128  -0.00129   2.04537
   A33        2.03274   0.00000   0.00000  -0.00120  -0.00121   2.03154
   A34        1.96459   0.00000   0.00000   0.00018   0.00018   1.96478
   A35        1.89528  -0.00000   0.00000   0.00001   0.00001   1.89529
   A36        1.92652  -0.00000   0.00000  -0.00017  -0.00017   1.92636
   A37        1.89693   0.00000   0.00000   0.00003   0.00003   1.89696
   A38        1.88454   0.00000   0.00000  -0.00001  -0.00001   1.88453
   A39        1.89466   0.00000   0.00000  -0.00004  -0.00004   1.89462
    D1        3.03368   0.00000   0.00000  -0.00061  -0.00061   3.03306
    D2       -0.06425   0.00000   0.00000   0.00007   0.00007  -0.06418
    D3        0.07653   0.00000   0.00000  -0.00483  -0.00483   0.07170
    D4       -3.02140   0.00000   0.00000  -0.00414  -0.00415  -3.02554
    D5       -1.08587   0.00000   0.00000   0.01277   0.01277  -1.07310
    D6        3.11843   0.00000   0.00000   0.00546   0.00547   3.12390
    D7        0.80068   0.00000   0.00000   0.01278   0.01278   0.81346
    D8        1.87050   0.00000   0.00000   0.01711   0.01710   1.88760
    D9       -0.20838   0.00000   0.00000   0.00980   0.00981  -0.19858
   D10       -2.52613   0.00000   0.00000   0.01712   0.01712  -2.50902
   D11       -3.02151  -0.00000   0.00000  -0.00002  -0.00002  -3.02153
   D12       -0.35026  -0.00000   0.00000  -0.00785  -0.00785  -0.35811
   D13        0.16265  -0.00000   0.00000   0.00060   0.00060   0.16326
   D14        2.83391  -0.00000   0.00000  -0.00723  -0.00723   2.82668
   D15       -2.14855   0.00000   0.00000   0.02397   0.02396  -2.12459
   D16        1.91284   0.00000   0.00000   0.02416   0.02415   1.93699
   D17       -0.04349   0.00000   0.00000   0.02205   0.02204  -0.02145
   D18        0.06641  -0.00000   0.00000   0.02666   0.02667   0.09307
   D19       -2.15539  -0.00000   0.00000   0.02685   0.02686  -2.12853
   D20        2.17147  -0.00000   0.00000   0.02475   0.02475   2.19621
   D21        1.98964  -0.00000   0.00000   0.02501   0.02501   2.01465
   D22       -0.23215  -0.00000   0.00000   0.02520   0.02520  -0.20695
   D23       -2.18848  -0.00000   0.00000   0.02309   0.02309  -2.16539
   D24        0.84734  -0.00000   0.00000   0.00327   0.00326   0.85060
   D25        2.97897  -0.00000   0.00000   0.00402   0.00402   2.98299
   D26       -1.22258  -0.00000   0.00000   0.00358   0.00358  -1.21900
   D27       -1.28175  -0.00000   0.00000  -0.00189  -0.00189  -1.28364
   D28        0.84989  -0.00000   0.00000  -0.00114  -0.00114   0.84875
   D29        2.93152  -0.00000   0.00000  -0.00157  -0.00158   2.92995
   D30       -3.03996   0.00000   0.00000  -0.00288  -0.00288  -3.04283
   D31       -0.90832   0.00000   0.00000  -0.00213  -0.00212  -0.91044
   D32        1.17332   0.00000   0.00000  -0.00256  -0.00256   1.17076
   D33        3.00224   0.00000   0.00000  -0.00252  -0.00252   2.99972
   D34       -1.07715  -0.00000   0.00000  -0.00189  -0.00189  -1.07905
   D35        0.99579   0.00000   0.00000  -0.00138  -0.00138   0.99441
   D36       -1.18787   0.00000   0.00000  -0.00279  -0.00279  -1.19066
   D37        1.01592  -0.00000   0.00000  -0.00216  -0.00216   1.01377
   D38        3.08886   0.00000   0.00000  -0.00164  -0.00164   3.08722
   D39        0.90849  -0.00000   0.00000  -0.00168  -0.00168   0.90680
   D40        3.11228  -0.00000   0.00000  -0.00105  -0.00105   3.11122
   D41       -1.09797   0.00000   0.00000  -0.00054  -0.00054  -1.09851
   D42        1.10755  -0.00000   0.00000  -0.00253  -0.00253   1.10502
   D43       -3.07452  -0.00000   0.00000  -0.00237  -0.00237  -3.07689
   D44       -0.99947  -0.00000   0.00000  -0.00252  -0.00252  -1.00199
   D45       -1.56727  -0.00000   0.00000   0.00527   0.00527  -1.56200
   D46        0.53385  -0.00000   0.00000   0.00542   0.00542   0.53927
   D47        2.60889  -0.00000   0.00000   0.00528   0.00528   2.61417
         Item               Value     Threshold  Converged?
 Maximum Force            0.001256     0.000450     NO 
 RMS     Force            0.000121     0.000300     YES
 Maximum Displacement     0.075029     0.001800     NO 
 RMS     Displacement     0.016960     0.001200     NO 
 Predicted change in Energy=-1.189505D-06
 GradGradGradGradGradGradGradGradGradGradGradGradGradGradGradGradGradGrad

                          Input orientation:                          
 ---------------------------------------------------------------------
 Center     Atomic      Atomic             Coordinates (Angstroms)
 Number     Number       Type             X           Y           Z
 ---------------------------------------------------------------------
      1          6           0       -0.248196   -0.686395    0.992423
      2          6           0       -1.585895   -0.617805    0.470001
      3          8           0       -2.487357   -1.368856    0.879368
      4          6           0        0.906456   -0.025375    0.591838
      5          6           0        2.626489   -1.092521   -1.466719
      6          1           0        2.658261   -1.428992   -2.502852
      7          1           0        3.413492   -0.359552   -1.308193
      8          1           0        2.784616   -1.946063   -0.811727
      9          7           0        1.325700   -0.484534   -1.170074
     10          1           0        1.176556    0.331088   -1.754403
     11          1           0        0.573970   -1.138520   -1.361497
     12          6           0        2.166983   -0.297792    1.367176
     13          1           0        2.309917   -1.371357    1.484394
     14          1           0        3.045103    0.133537    0.892918
     15          1           0        2.065335    0.148009    2.356012
     16         17           0        0.813515    1.796576    0.280637
     17          1           0       -0.089354   -1.483447    1.707235
     18          7           0       -1.859781    0.266471   -0.543890
     19          6           0       -3.215823    0.474593   -0.997383
     20          1           0       -1.224295    1.035920   -0.666635
     21          1           0       -3.859168    0.896429   -0.218788
     22          1           0       -3.197587    1.159312   -1.843719
     23          1           0       -3.655527   -0.467265   -1.322983
 ---------------------------------------------------------------------
                    Distance matrix (angstroms):
                    1          2          3          4          5
     1  C    0.000000
     2  C    1.437730   0.000000
     3  O    2.343582   1.242696   0.000000
     4  C    1.389473   2.564689   3.661363   0.000000
     5  C    3.804751   4.660517   5.633108   2.887036   0.000000
     6  H    4.606072   5.244878   6.157956   3.823098   1.089860
     7  H    4.336776   5.312489   6.373707   3.163389   1.087083
     8  H    3.746955   4.744309   5.566567   3.030929   1.087453
     9  N    2.682217   3.344397   4.418329   1.868402   1.466185
    10  H    3.257337   3.671445   4.821910   2.388486   2.052250
    11  H    2.534031   2.879330   3.800822   2.272698   2.055729
    12  C    2.474781   3.871876   4.800834   1.504755   2.978876
    13  H    2.693539   4.095630   4.835277   2.139633   2.981113
    14  H    3.395291   4.710574   5.732842   2.165574   2.691904
    15  H    2.812122   4.180310   5.020793   2.117870   4.057966
    16  Cl   2.792671   3.409144   4.612395   1.850673   3.832364
    17  H    1.082349   2.125963   2.539470   2.088474   4.195547
    18  N    2.421862   1.372928   2.256946   3.004516   4.777561
    19  C    3.756865   2.450147   2.729682   4.446209   6.067020
    20  H    2.582946   2.038995   3.125443   2.692620   4.472017
    21  H    4.124498   2.816932   2.866937   4.921179   6.897608
    22  H    4.488791   3.333016   3.783024   4.917173   6.255617
    23  H    4.125413   2.742413   2.651007   4.967242   6.314692
                    6          7          8          9         10
     6  H    0.000000
     7  H    1.772368   0.000000
     8  H    1.772917   1.777353   0.000000
     9  N    2.108085   2.096086   2.095929   0.000000
    10  H    2.419402   2.383269   2.942773   1.014358   0.000000
    11  H    2.394022   2.944915   2.416885   1.014612   1.636225
    12  C    4.061783   2.952152   2.801051   2.679602   3.334769
    13  H    4.002849   3.168623   2.414083   2.966705   3.830487
    14  H    3.757979   2.285551   2.701557   2.755775   3.246352
    15  H    5.142671   3.937201   3.864851   3.657930   4.209389
    16  Cl   4.642757   3.732714   4.368736   2.751428   2.533938
    17  H    5.027643   4.756667   3.849531   3.358439   4.108285
    18  N    5.208151   5.365023   5.151453   3.332176   3.269382
    19  C    6.355702   6.688814   6.472969   4.644909   4.459447
    20  H    4.951942   4.885490   4.998464   3.011263   2.728391
    21  H    7.287072   7.460287   7.250600   5.449298   5.294926
    22  H    6.436205   6.804418   6.818733   4.859645   4.452759
    23  H    6.494685   7.069856   6.627494   4.983603   4.916556
                   11         12         13         14         15
    11  H    0.000000
    12  C    3.269582   0.000000
    13  H    3.341680   1.089363   0.000000
    14  H    3.578689   1.087225   1.776246   0.000000
    15  H    4.207042   1.089435   1.768619   1.760908   0.000000
    16  Cl   3.371761   2.720078   3.704599   2.849662   2.931214
    17  H    3.158495   2.571474   2.412204   3.619747   2.779433
    18  N    2.926708   4.492815   4.917601   5.112726   4.881598
    19  C    4.134881   5.929783   6.332501   6.548951   6.264388
    20  H    2.905990   4.173241   4.786707   4.634033   4.554827
    21  H    5.009941   6.344757   6.789794   7.034689   6.503035
    22  H    4.442658   6.419627   6.914711   6.892936   6.808732
    23  H    4.282605   6.416174   6.654718   7.083052   6.829483
                   16         17         18         19         20
    16  Cl   0.000000
    17  H    3.689026   0.000000
    18  N    3.188664   3.356216   0.000000
    19  C    4.429056   4.574242   1.444930   0.000000
    20  H    2.372465   3.642878   1.005465   2.095392   0.000000
    21  H    4.784731   4.856426   2.121341   1.094554   2.676299
    22  H    4.583440   5.408749   2.067957   1.088787   2.301007
    23  H    5.260124   4.788782   2.090468   1.089243   2.932788
                   21         22         23
    21  H    0.000000
    22  H    1.774034   0.000000
    23  H    1.766458   1.768228   0.000000
 Stoichiometry    C6H13ClN2O
 Framework group  C1[X(C6H13ClN2O)]
 Deg. of freedom    63
 Full point group                 C1      NOp   1
 Largest Abelian subgroup         C1      NOp   1
 Largest concise Abelian subgroup C1      NOp   1
                         Standard orientation:                         
 ---------------------------------------------------------------------
 Center     Atomic      Atomic             Coordinates (Angstroms)
 Number     Number       Type             X           Y           Z
 ---------------------------------------------------------------------
      1          6           0        0.248579   -0.653244   -1.013261
      2          6           0        1.587719   -0.596944   -0.493065
      3          8           0        2.490633   -1.330479   -0.930060
      4          6           0       -0.907214   -0.010369   -0.587244
      5          6           0       -2.616487   -1.152062    1.440045
      6          1           0       -2.643603   -1.522962    2.464492
      7          1           0       -3.406739   -0.417251    1.308501
      8          1           0       -2.773572   -1.983926    0.757491
      9          7           0       -1.318958   -0.529541    1.159712
     10          1           0       -1.170947    0.266742    1.770408
     11          1           0       -0.564166   -1.186643    1.326877
     12          6           0       -2.169251   -0.261665   -1.367244
     13          1           0       -2.308557   -1.331274   -1.519701
     14          1           0       -3.047416    0.150258   -0.876118
     15          1           0       -2.072513    0.217197   -2.341001
     16         17           0       -0.820060    1.800555   -0.215829
     17          1           0        0.090373   -1.426661   -1.753717
     18          7           0        1.861623    0.254132    0.548845
     19          6           0        3.218359    0.452252    1.004740
     20          1           0        1.223673    1.016620    0.699152
     21          1           0        3.857565    0.902245    0.238601
     22          1           0        3.200340    1.108340    1.873464
     23          1           0        3.662644   -0.498227    1.297402
 ---------------------------------------------------------------------
 Rotational constants (GHZ):           1.5002895           0.6866492           0.6503652
 Standard basis: def2TZVP (5D, 7F)
 There are   444 symmetry adapted cartesian basis functions of A   symmetry.
 There are   394 symmetry adapted basis functions of A   symmetry.
   394 basis functions,   632 primitive gaussians,   444 cartesian basis functions
    44 alpha electrons       44 beta electrons
       nuclear repulsion energy       659.5362864486 Hartrees.
 NAtoms=   23 NActive=   23 NUniq=   23 SFac= 1.00D+00 NAtFMM=   60 NAOKFM=F Big=F
 Integral buffers will be    131072 words long.
 Raffenetti 2 integral format.
 Two-electron integral symmetry is turned on.
 Nuclear repulsion after empirical dispersion term =      659.5211709264 Hartrees.
 ------------------------------------------------------------------------------
 Polarizable Continuum Model (PCM)
 =================================
 Model                : PCM.
 Atomic radii         : UFF (Universal Force Field).
 Polarization charges : Total charges.
 Charge compensation  : None.
 Solution method      : Matrix inversion.
 Cavity type          : Scaled VdW (van der Waals Surface) (Alpha=1.100).
 Cavity algorithm     : GePol (No added spheres)
                        Default sphere list used, NSphG=   23.
                        Lebedev-Laikov grids with approx.  5.0 points / Ang**2.
                        Smoothing algorithm: York/Karplus (Gamma=1.0000).
                        Polarization charges: spherical gaussians, with
                                              point-specific exponents (IZeta= 3).
                        Self-potential: point-specific (ISelfS= 7).
                        Self-field    : sphere-specific E.n sum rule (ISelfD= 2).
 1st derivatives      : Analytical E(r).r(x)/FMM algorithm (CHGder, D1EAlg=3).
                        Cavity 1st derivative terms included.
 Solvent              : Water, Eps=  78.355300 Eps(inf)=   1.777849
 ------------------------------------------------------------------------------
 One-electron integrals computed using PRISM.
   1 Symmetry operations used in ECPInt.
 ECPInt:  NShTT=   13530 NPrTT=   41028 LenC2=   12868 LenP2D=   29756.
 LDataN:  DoStor=T MaxTD1= 6 Len=  172
 NBasis=   394 RedAO= T EigKep=  7.57D-05  NBF=   394
 NBsUse=   394 1.00D-06 EigRej= -1.00D+00 NBFU=   394
 Initial guess from the checkpoint file:  "/beegfs/scratch/user/q/tla25/Gau-311289.chk"
 B after Tr=     0.000000    0.000000   -0.000000
         Rot=    0.999872   -0.015899   -0.001510   -0.001332 Ang=  -1.84 deg.
 ExpMin= 9.52D-02 ExpMax= 6.95D+04 ExpMxC= 2.37D+03 IAcc=2 IRadAn=         4 AccDes= 0.00D+00
 Harris functional with IExCor= 4639 and IRadAn=       4 diagonalized for initial guess.
 HarFok:  IExCor= 4639 AccDes= 0.00D+00 IRadAn=         4 IDoV= 1 UseB2=F ITyADJ=14
 ICtDFT=  3500011 ScaDFX=  1.000000  1.000000  1.000000  1.000000
 FoFCou: FMM=F IPFlag=           0 FMFlag=      100000 FMFlg1=           0
         NFxFlg=           0 DoJE=T BraDBF=F KetDBF=T FulRan=T
         wScrn=  0.000000 ICntrl=       500 IOpCl=  0 I1Cent=   200000004 NGrid=           0
         NMat0=    1 NMatS0=      1 NMatT0=    0 NMatD0=    1 NMtDS0=    0 NMtDT0=    0
 Petite list used in FoFCou.
 Requested convergence on RMS density matrix=1.00D-08 within 128 cycles.
 Requested convergence on MAX density matrix=1.00D-06.
 Requested convergence on             energy=1.00D-06.
 No special actions if energy rises.
 Inv3:  Mode=1 IEnd=     8823675.
 Iteration    1 A*A^-1 deviation from unit magnitude is 3.11D-15 for    739.
 Iteration    1 A*A^-1 deviation from orthogonality  is 2.31D-15 for   1129    128.
 Iteration    1 A^-1*A deviation from unit magnitude is 3.11D-15 for    739.
 Iteration    1 A^-1*A deviation from orthogonality  is 4.92D-14 for   1238   1201.
 Error on total polarization charges =  0.01324
 SCF Done:  E(RwB97XD) =  -881.400987502     A.U. after   11 cycles
            NFock= 11  Conv=0.42D-08     -V/T= 2.0031
   1 Symmetry operations used in ECPInt.
 ECPInt:  NShTT=   13530 NPrTT=   41028 LenC2=   12868 LenP2D=   29756.
 LDataN:  DoStor=T MaxTD1= 7 Len=  274
 D1PCM: PCM CHGder 1st derivatives, ID1Alg=3 FixD1E=F DoIter=F DoCFld=F I1PDM=0.
 Calling FoFJK, ICntrl=      2127 FMM=F ISym2X=0 I1Cent= 0 IOpClX= 0 NMat=1 NMatS=1 NMatT=0.
 ***** Axes restored to original set *****
 -------------------------------------------------------------------
 Center     Atomic                   Forces (Hartrees/Bohr)
 Number     Number              X              Y              Z
 -------------------------------------------------------------------
      1        6           0.000054683   -0.000097721   -0.000014147
      2        6          -0.000031131   -0.000011136   -0.000033287
      3        8           0.000041618    0.000065463   -0.000015685
      4        6          -0.000066030   -0.000087925    0.000073645
      5        6          -0.000006729   -0.000042178   -0.000019387
      6        1           0.000006686   -0.000016109    0.000001848
      7        1           0.000025396    0.000022088    0.000034988
      8        1          -0.000007781    0.000005265    0.000053567
      9        7          -0.000040878   -0.000010247   -0.000045813
     10        1           0.000103761    0.000039960    0.000036112
     11        1          -0.000059661    0.000055629   -0.000024139
     12        6           0.000032496    0.000063721   -0.000029622
     13        1          -0.000001090    0.000000854    0.000003634
     14        1           0.000006987   -0.000036853   -0.000038189
     15        1          -0.000005270   -0.000012119    0.000004729
     16       17          -0.000030113    0.000035670   -0.000017604
     17        1          -0.000010064    0.000033118    0.000035902
     18        7           0.000034583   -0.000032193   -0.000054737
     19        6          -0.000022098    0.000000190   -0.000009472
     20        1          -0.000043222    0.000039446    0.000052505
     21        1           0.000006808   -0.000006894    0.000013689
     22        1           0.000005683    0.000009272   -0.000001598
     23        1           0.000005366   -0.000017301   -0.000006936
 -------------------------------------------------------------------
 Cartesian Forces:  Max     0.000103761 RMS     0.000037712

 GradGradGradGradGradGradGradGradGradGradGradGradGradGradGradGradGradGrad
 Berny optimization.
 FormGI is forming the generalized inverse of G from B-inverse, IUseBI=4.
 Internal  Forces:  Max     0.000169158 RMS     0.000039603
 Search for a saddle point.
 Step number   2 out of a maximum of   70
 All quantities printed in internal units (Hartrees-Bohrs-Radians)
 Swapping is turned off.
 Update second derivatives using D2CorX and points    1    2
 ITU=  0  0
     Eigenvalues ---   -0.03683  -0.00191   0.00111   0.00258   0.00375
     Eigenvalues ---    0.00416   0.00708   0.00918   0.01425   0.01952
     Eigenvalues ---    0.02175   0.03473   0.04168   0.04388   0.04581
     Eigenvalues ---    0.04752   0.04832   0.05808   0.05969   0.06138
     Eigenvalues ---    0.06324   0.08207   0.08970   0.09081   0.11792
     Eigenvalues ---    0.12026   0.12091   0.12396   0.12944   0.13315
     Eigenvalues ---    0.13991   0.15219   0.15882   0.17082   0.17191
     Eigenvalues ---    0.17558   0.17614   0.18086   0.19492   0.20622
     Eigenvalues ---    0.25207   0.25536   0.31337   0.32041   0.32841
     Eigenvalues ---    0.34036   0.34380   0.34551   0.34640   0.34797
     Eigenvalues ---    0.34845   0.35062   0.35514   0.36266   0.36314
     Eigenvalues ---    0.38728   0.41468   0.44486   0.44928   0.45121
     Eigenvalues ---    0.47322   0.53978   0.72766
 Eigenvectors required to have negative eigenvalues:
                          R6        D10       R8        D7        D8
   1                    0.83612  -0.22221  -0.18579  -0.18152  -0.15379
                          A10       D5        D25       R2        D26
   1                   -0.14934  -0.11310  -0.10917  -0.10887  -0.10611
 RFO step:  Lambda0=3.661290229D-10 Lambda=-1.92864219D-03.
 Linear search not attempted -- option 19 set.
 Iteration  1 RMS(Cart)=  0.01585902 RMS(Int)=  0.00014671
 Iteration  2 RMS(Cart)=  0.00023394 RMS(Int)=  0.00000119
 Iteration  3 RMS(Cart)=  0.00000003 RMS(Int)=  0.00000119
 Variable       Old X    -DE/DX   Delta X   Delta X   Delta X     New X
                                 (Linear)    (Quad)   (Total)
    R1        2.71692   0.00002   0.00000   0.00014   0.00014   2.71706
    R2        2.62572  -0.00002   0.00000  -0.00076  -0.00076   2.62497
    R3        2.04534  -0.00000   0.00000  -0.00003  -0.00003   2.04531
    R4        2.34835  -0.00007   0.00000  -0.00036  -0.00036   2.34799
    R5        2.59446  -0.00002   0.00000   0.00018   0.00018   2.59463
    R6        3.53077  -0.00003   0.00000   0.00323   0.00323   3.53399
[...]
 0.00011061,0.00473445,-0.00021326,-0.00187385,-0.00020793,-0.00019247,
 -0.00006634,0.00010720,-0.00001261,0.00000241,0.00004042,-0.00019684,-
 0.00005102,0.00009296,0.00004718,0.00001305,0.00049885,0.00016886,-0.0
 0046963,-0.00021224,0.00036285,-0.00047941,0.00012302,0.00010972,0.000
 10291,-0.10931668,-0.12538381,0.06212002,-0.02283543,-0.01319926,0.012
 63754,0.11711192,0.13063143,-0.00174103,0.00143372,-0.00107792,-0.0009
 9611,-0.00020587,0.00049529,-0.00012112,-0.00007154,-0.00013814,-0.015
 67862,-0.01031150,0.00593250,-0.00012856,-0.00000852,-0.00014247,0.000
 08195,-0.00000962,0.00004220,0.00007086,-0.00012705,0.00005473,-0.0000
 5086,0.00008444,0.00004428,-0.00088491,-0.00060565,-0.00014612,-0.0006
 7600,0.00012787,-0.00119418,-0.00002614,0.00003079,0.00004561,0.087857
 76,0.06360861,-0.09554728,-0.00106703,-0.00094934,-0.00048691,-0.08901
 981,-0.06796599,0.10287103,-0.00201898,0.00048691,-0.00082453,0.001601
 06,0.00070370,0.00155980,-0.00054276,-0.00058836,-0.00022992,0.0018073
 1,-0.00913992,-0.02802324,-0.00023056,0.00011135,0.00013490,0.00019248
 ,-0.00009975,0.00001795,0.00015272,-0.00014654,-0.00009800,0.00007494,
 0.00002780,-0.00000241,-0.00254763,0.00052089,-0.00123985,-0.00020282,
 0.00000070,-0.00034005,0.00049140,-0.00011112,-0.00058514,-0.04969458,
 0.01207732,0.03484761,-0.00161965,0.00143596,0.00714563,-0.00228797,0.
 00864601,0.02178706,0.05450649,-0.00143197,0.00038098,-0.00012635,0.00
 067523,0.00007211,0.00051619,-0.00029448,-0.00020355,-0.00000320,-0.00
 074701,0.00002002,0.00380882,0.00039697,-0.00015581,0.00010702,-0.0001
 9986,0.00015413,-0.00006376,-0.00025826,0.00003569,-0.00001936,-0.0000
 0774,0.00007455,0.00013667,0.00137579,-0.00003434,0.00208555,-0.000000
 35,0.00001265,-0.00037911,-0.00017920,0.00027760,0.00047676,0.01169004
 ,-0.07216174,-0.08203729,0.00347094,-0.00763682,-0.02936659,-0.0012767
 5,0.00555385,0.01685268,-0.01311103,0.07367006,0.00043600,0.00080270,0
 .00137452,-0.00059537,0.00026802,0.00041166,0.00008970,0.00001550,-0.0
 0014527,0.00256245,-0.00510613,-0.01640208,-0.00014586,0.00044025,0.00
 020765,0.00011135,-0.00010936,-0.00002448,0.00001437,0.00001365,0.0000
 7049,0.00003881,-0.00003708,-0.00002727,-0.00292740,0.00031815,-0.0005
 3448,-0.00004110,-0.00010099,0.00047988,0.00042221,-0.00028403,-0.0006
 9289,0.03310875,-0.08076342,-0.28962660,-0.00023739,0.00094424,0.00252
 349,0.00090137,-0.00411592,-0.01078047,-0.03408154,0.08798787,0.312815
 51,0.00843532,-0.01209106,0.00241813,-0.00052165,0.00213395,-0.0024806
 7,-0.00076918,-0.00151952,0.00110094,-0.03959337,0.00222480,-0.0024811
 6,0.00048032,-0.00061873,0.00243020,-0.00020218,0.00081567,0.00012589,
 0.00002243,-0.00011246,-0.00017825,0.00003082,0.00001088,-0.00005494,-
 0.00297627,0.01232060,0.00391562,0.00004022,0.00045598,-0.00048899,0.0
 0007051,-0.00001718,-0.00003345,-0.00530190,0.02665959,-0.00311631,-0.
 00309299,0.00117325,-0.00291602,0.00124092,0.00087737,0.00044124,0.000
 47245,-0.00006691,0.00023095,0.04980492,-0.00586315,-0.03626365,0.0119
 7572,0.00933618,0.00466727,0.00873978,-0.00434609,-0.00293775,-0.00039
 369,0.00638506,-0.05021990,0.02076656,0.00025010,0.00433040,-0.0062750
 9,0.00066428,-0.00243876,-0.00027352,0.00032078,-0.00010766,0.00013652
 ,-0.00087664,-0.00001314,0.00116551,0.01820643,-0.02572113,-0.01968614
 ,0.00067722,-0.00189452,-0.00162100,-0.00006790,-0.00080220,0.00074903
 ,0.00621760,-0.02301575,0.00276112,0.00254882,0.00024910,0.00232493,-0
 .00047287,0.00097760,-0.00144344,-0.00064584,0.00008767,0.00022772,-0.
 02264588,0.14164293,0.00664028,0.01379023,0.00176550,-0.00704577,-0.00
 068935,-0.00586141,0.00269723,0.00115119,0.00048583,-0.00844709,0.0009
 5127,-0.02584481,0.00035435,0.00141219,-0.00382591,0.00047278,-0.00145
 698,-0.00017748,0.00020529,-0.00024820,-0.00005272,-0.00003390,-0.0001
 4218,-0.00005061,0.00904373,-0.02325611,-0.00868098,-0.00012360,-0.000
 50265,0.00046963,0.00031008,-0.00023960,0.00095628,-0.00377689,0.01560
 014,-0.00011049,-0.00210627,0.00065411,-0.00064773,0.00016036,-0.00042
 613,0.00027288,0.00048000,0.00043369,0.00071216,0.00399492,-0.00519328
 ,0.03607337,-0.06489631,0.05236028,-0.04950530,-0.00366962,0.02468438,
 -0.01568969,0.00114435,-0.00048729,0.00162797,0.00410838,-0.01921185,0
 .01025737,0.00025919,0.00013469,0.00017884,-0.00014135,0.00016595,0.00
 002131,-0.00002036,0.00006860,-0.00002280,-0.00034817,0.00009684,0.000
 49361,-0.00200840,-0.00109170,0.00189107,0.00004550,0.00029152,0.00069
 811,-0.00020607,-0.00002642,-0.00013372,-0.00117629,-0.00167617,0.0014
 1748,-0.00079776,-0.00019160,0.00020173,0.00000401,0.00012210,-0.00000
 383,0.00021997,0.00004511,0.00007475,-0.00081171,-0.00139572,-0.000424
 54,0.07423910,0.05269425,-0.22228099,0.14699075,-0.00443495,-0.0003524
 6,-0.00149554,0.00062893,0.00147500,-0.00242079,0.00293857,-0.00969115
 ,0.01248877,-0.00027159,0.00003283,-0.00000393,0.00006474,-0.00012229,
 -0.00004871,-0.00000995,-0.00003592,0.00003247,0.00023447,-0.00005870,
 -0.00033274,0.00213148,0.00041554,-0.00361635,0.00006848,-0.00024074,-
 0.00052714,0.00010487,-0.00005345,0.00000330,0.00196655,0.00003895,-0.
 00122846,-0.00056677,0.00031642,-0.00000516,0.00033049,0.00031995,-0.0
 0027616,-0.00033333,-0.00027442,-0.00032543,-0.00179624,-0.00686281,0.
 00264573,-0.05263742,0.23622834,-0.04859498,0.14136013,-0.11560431,-0.
 00343426,0.01078978,-0.00696152,0.00299141,-0.00157098,-0.00103002,-0.
 00351076,0.01135648,0.00286256,-0.00035613,0.00088975,0.00007426,-0.00
 000247,-0.00050597,0.00007631,-0.00000615,-0.00014106,0.00003831,0.000
 17883,-0.00052341,-0.00070962,0.00388255,0.00143138,-0.00520518,0.0001
 1247,-0.00055119,-0.00108533,0.00007600,-0.00010040,0.00033107,-0.0001
 5454,-0.00069689,-0.00160179,0.00011752,-0.00077198,0.00033697,0.00034
 488,-0.00045374,-0.00030568,-0.00000911,-0.00022663,-0.00039161,-0.000
 44867,-0.00805289,0.00318142,0.05261011,-0.15249649,0.12502313,-0.0131
 7215,0.02395684,-0.03036231,-0.14642055,0.03330482,-0.07922501,0.01566
 355,-0.03116116,0.02245329,0.00648870,0.00537340,-0.00502267,0.0004009
 0,-0.00120685,0.00003010,-0.00001712,0.00027610,0.00014595,-0.00010348
 ,0.00019606,-0.00002488,0.00015913,-0.00007294,-0.00034972,-0.00196440
 ,-0.00023663,0.00410312,0.00018561,0.00036157,-0.00029865,-0.00039099,
 0.00033517,-0.00033156,-0.00015719,-0.00049748,0.00008086,0.00010629,-
 0.00004175,0.00007126,-0.00029266,-0.00007666,0.00012589,-0.00028869,-
 0.00003282,0.00004283,-0.00508749,-0.00443883,-0.00212837,-0.00565963,
 -0.00060484,-0.00372635,0.57829697,0.01763710,0.01224301,0.01078269,0.
 02043078,-0.18008669,0.09576794,-0.01740056,-0.07011917,0.05358013,-0.
 00788587,-0.00897512,0.00801080,-0.00035299,0.00089462,-0.00031848,0.0
 0003362,-0.00024054,-0.00004974,0.00001978,-0.00002287,0.00003651,-0.0
 0019114,0.00000900,0.00049429,0.00205919,0.00111687,-0.00478008,-0.000
 11148,-0.00026510,-0.00070781,0.00130331,-0.00027708,-0.00031154,0.000
 12885,0.00049546,-0.00021120,-0.00000290,0.00000927,-0.00009297,0.0003
 7183,-0.00012400,-0.00010848,0.00021149,0.00011925,-0.00008446,-0.0034
 0877,0.00148105,-0.00245535,-0.00173555,0.00071380,-0.00024670,0.15439
 289,0.70553855,-0.03392055,0.00915818,-0.01277521,-0.05566177,0.066036
 33,-0.14193284,0.01601032,0.05233185,-0.00476075,0.01292247,0.01389163
 ,-0.01436990,0.00020407,-0.00126106,0.00084127,-0.00011998,0.00047164,
 0.00005181,-0.00007398,-0.00010556,-0.00004741,0.00027778,-0.00010144,
 -0.00077433,-0.00309026,-0.00079250,0.00844890,0.00044893,0.00024107,0
 .00129676,-0.00346514,-0.00007394,0.00068584,-0.00013381,-0.00077788,-
 0.00047531,-0.00001803,-0.00015975,0.00016336,-0.00046729,-0.00000691,
 0.00010725,-0.00063157,-0.00021312,0.00007014,-0.00200345,-0.00458916,
 0.00188531,-0.00288710,0.00082646,0.00112762,0.20348447,-0.16278448,0.
 25675366,0.00505056,-0.00079934,0.00116289,-0.01532164,0.01794529,-0.0
 1329913,-0.00074375,-0.00794772,0.00495229,-0.00221786,-0.00189301,0.0
 0177517,-0.00009224,0.00044229,-0.00007744,0.00002708,-0.00010530,-0.0
 0005617,0.00004861,-0.00005487,0.00000358,-0.00007492,0.00005063,0.000
 13814,0.00087041,0.00011791,-0.00103121,0.00002379,-0.00015428,-0.0000
 6328,-0.00068125,-0.00003452,0.00038002,0.00008650,0.00014321,-0.00001
 886,0.00003302,0.00002205,-0.00001646,0.00010914,-0.00000978,0.0000177
 6,0.00009574,0.00004273,0.00001785,0.00070983,0.00059278,-0.00003635,0
 .00081368,-0.00057355,-0.00017302,-0.22652999,-0.01548504,-0.06299485,
 0.50745458,0.00004410,-0.00164012,0.00411852,0.02730821,0.00443371,0.0
 0663902,0.00122865,0.00009129,-0.00168656,-0.00048610,-0.00188606,0.00
 123777,-0.00005970,0.00012171,0.00000616,0.00000013,-0.00002486,-0.000
 00792,0.00000987,0.00000151,0.00000094,-0.00003513,0.00001912,0.000055
 94,0.00037691,0.00020440,-0.00078513,-0.00000399,-0.00005514,-0.000108
 46,0.00012873,-0.00013105,-0.00007536,0.00014420,0.00019302,-0.0000805
 3,-0.00005505,0.00002604,-0.00002830,0.00010263,0.00000258,-0.00001670
 ,0.00003811,-0.00000962,-0.00001015,-0.00148985,-0.00035554,-0.0008582
 4,0.00091441,0.00038471,0.00090025,-0.00306840,-0.10248341,0.01811000,
 0.00971179,0.60567386,0.00282210,0.00541124,0.00258726,-0.02905677,0.0
 1078375,-0.01931202,-0.00197709,-0.00778916,-0.00141727,-0.00147538,-0
 .00145736,0.00140660,-0.00010483,0.00047699,0.00002102,0.00000009,-0.0
 0011053,-0.00004449,0.00004450,-0.00007444,-0.00000003,-0.00004773,0.0
 0000331,0.00010695,0.00069243,0.00012453,-0.00157419,-0.00002511,-0.00
 015977,0.00003237,-0.00042989,-0.00004552,0.00053070,-0.00011098,0.000
 03564,0.00011039,0.00002457,-0.00005126,-0.00000271,0.00006432,-0.0000
 3994,-0.00006882,0.00016620,-0.00000164,-0.00001469,0.00036535,-0.0000
 7295,0.00021209,-0.00097682,0.00031001,0.00040425,-0.04900662,0.008242
 60,-0.07947099,-0.01666348,-0.01400555,0.56815631,-0.00534451,-0.00159
 429,-0.00111517,0.01227295,0.00314564,0.01451624,0.00271203,0.00326229
 ,-0.00640021,0.00020172,0.00717972,-0.00455394,0.00019180,0.00010423,-
 0.00006874,0.00003833,-0.00007584,-0.00004726,0.00003889,-0.00011555,-
 0.00000659,0.00003692,-0.00003192,-0.00008681,-0.00078736,-0.00093405,
 0.00128013,-0.00002447,-0.00000611,0.00040096,-0.00128356,0.00094096,0
 .00133524,-0.00008067,-0.00061245,-0.00001551,0.00013823,-0.00016245,0
 .00011811,-0.00015336,0.00007108,-0.00000832,-0.00004929,-0.00005177,-
 0.00001675,-0.00217291,-0.00370686,-0.00018335,-0.00035962,-0.00012234
 ,0.00037419,-0.13798029,-0.15614042,-0.03450702,-0.01285081,-0.0252346
 8,-0.00034818,0.14870735,-0.00013135,0.00020081,0.00061784,-0.01116067
 ,-0.01737336,-0.00694741,0.00114242,-0.00062216,0.00431836,0.00172519,
 0.00267890,0.00091985,-0.00003868,-0.00021672,-0.00017756,0.00001142,-
 0.00001071,0.00002355,-0.00003096,0.00007757,0.00001530,0.00002159,-0.
 00002016,-0.00001989,0.00008732,-0.00048556,0.00008878,-0.00018760,0.0
 0013833,-0.00003438,0.00130337,-0.00012026,-0.00090803,0.00013587,-0.0
 0087075,-0.00015387,0.00016892,-0.00005850,0.00011662,-0.00011646,0.00
 004324,-0.00002879,-0.00011473,0.00000730,-0.00008278,-0.00291465,-0.0
 0292235,-0.00112858,-0.00044355,-0.00000847,-0.00039251,-0.17139876,-0
 .36757913,0.00829848,0.00555459,0.00754197,-0.00096036,0.17313826,0.37
 784595,0.00129239,-0.00075807,-0.00059500,0.01782732,0.02303245,-0.003
 25598,-0.00417547,0.00654239,-0.00118062,-0.00261084,0.00149992,0.0016
 4743,-0.00011934,-0.00007523,-0.00030795,0.00004069,-0.00005134,0.0000
 0437,-0.00002331,0.00010007,0.00002316,-0.00000999,0.00001414,0.000072
 30,0.00035285,-0.00025612,-0.00057196,-0.00016650,0.00009459,-0.000141
 78,0.00176123,-0.00067209,-0.00093042,0.00006902,-0.00023831,-0.000201
 05,0.00008450,-0.00002508,0.00006233,-0.00000456,0.00000523,0.00000491
 ,-0.00002650,0.00004537,-0.00002505,-0.00064742,-0.00100478,-0.0007802
 6,0.00041114,-0.00056583,-0.00051544,-0.03795162,-0.01072085,-0.018903
 61,-0.00304523,-0.01237492,-0.00401039,0.03009724,-0.00417472,0.030654
 71,-0.00205399,-0.00085101,-0.00138563,0.00165071,-0.00784811,0.006576
 45,0.00193261,0.00293310,-0.00065219,0.00140161,0.00133325,-0.00120078
 ,0.00006883,-0.00030861,0.00002009,-0.00000800,0.00007306,0.00003106,-
 0.00002940,0.00003967,-0.00000240,0.00004347,-0.00001793,-0.00008564,-
 0.00050167,-0.00009690,0.00099119,0.00001103,0.00010361,0.00002016,0.0
 0028443,0.00003390,-0.00027361,-0.00000326,-0.00008973,-0.00002947,-0.
 00001049,0.00000624,0.00001282,-0.00006617,0.00000865,0.00002394,-0.00
 009227,-0.00001550,0.00000086,-0.00022466,-0.00027325,0.00001090,-0.00
 010904,-0.00001673,-0.00020071,-0.03672007,0.00725231,0.01094641,-0.14
 975949,0.02530045,0.12194282,-0.00141245,0.00153156,0.00107014,0.17807
 876,0.00035369,0.00012738,0.00026612,0.00117762,0.00100822,-0.00105720
 ,-0.00107761,0.00042303,-0.00046787,-0.00025780,-0.00022180,0.00026810
 ,-0.00000663,0.00003333,-0.00000724,-0.00000015,-0.00001012,-0.0000008
 0,0.00000266,-0.00000040,0.00000069,-0.00000404,0.00000079,0.00001072,
 0.00005186,0.00000792,-0.00017794,-0.00001094,-0.00000779,-0.00000929,
 0.00002425,-0.00000163,-0.00000837,-0.00000692,0.00000173,0.00000238,0
 .00000384,0.00000003,-0.00000177,0.00000711,-0.00000524,-0.00000746,0.
 00001057,0.00000389,-0.00000111,-0.00002361,0.00001834,-0.00003692,0.0
 0002066,0.00000198,0.00000520,0.00061621,0.00160241,0.00193944,0.02529
 541,-0.05681488,-0.02983808,-0.00034506,-0.00001275,0.00030683,-0.0278
 0152,0.05250813,-0.00007952,-0.00084917,-0.00073079,-0.00062316,0.0005
 3623,0.00177335,0.00000839,-0.00030874,0.00000128,0.00020229,0.0001510
 6,-0.00034110,0.00002100,-0.00005152,-0.00000803,-0.00000017,0.0000119
 2,0.00000578,-0.00000191,0.00000775,-0.00000126,0.00000104,0.00000233,
 -0.00001364,-0.00008302,-0.00000954,0.00023285,0.00000921,0.00001582,-
 0.00000348,0.00001540,0.00001191,-0.00002318,0.00000606,0.00000946,0.0
 0001551,-0.00000568,0.00000513,-0.00000029,-0.00001375,0.00000529,0.00
 001352,-0.00001559,-0.00000013,0.00000512,0.00001598,0.00000183,0.0000
 0994,0.00005197,-0.00002594,-0.00003582,-0.01109386,0.00410518,0.01560
 547,0.12367725,-0.03062745,-0.19559043,-0.00014820,-0.00006598,0.00009
 926,-0.13277520,0.03313199,0.20432009,-0.00045350,0.00117173,-0.000834
 43,-0.00561692,-0.00449859,-0.00039006,0.00190934,0.00001754,0.0005863
 9,0.00051481,0.00059899,-0.00052673,0.00002257,-0.00008129,0.00002374,
 -0.00000735,0.00002158,0.00000942,-0.00000764,0.00000400,-0.00000159,0
 .00001743,-0.00001342,-0.00003272,-0.00019050,-0.00004659,0.00030522,0
 .00000133,0.00002853,0.00003663,0.00003882,0.00002169,-0.00004225,-0.0
 0004810,-0.00006995,0.00003211,0.00000676,-0.00001102,0.00000856,-0.00
 004054,-0.00000470,-0.00000504,-0.00001874,-0.00000761,-0.00000308,0.0
 0001645,-0.00015519,0.00011229,-0.00051120,0.00004818,-0.00015583,-0.0
 0959169,0.03081455,-0.02772021,-0.04977645,0.00539838,-0.00530715,0.00
 125890,0.00020476,0.00003372,0.00247132,-0.01593640,0.01218502,0.05986
 904,0.00037725,0.00019722,0.00027449,-0.00163754,0.00008406,-0.0005627
 3,0.00165016,0.00000281,0.00108821,-0.00032804,-0.00023353,0.00029263,
 -0.00001367,0.00006057,-0.00001135,0.00000455,-0.00001748,-0.00000697,
 0.00000549,-0.00000608,0.00000073,-0.00001052,0.00000550,0.00001792,0.
 00012902,0.00002412,-0.00021597,-0.00000087,-0.00002101,-0.00001970,-0
 .00003842,-0.00000582,0.00004435,0.00001675,0.00001070,-0.00001666,0.0
 0000435,-0.00000101,-0.00000048,0.00001707,-0.00000225,-0.00000246,0.0
 0001362,0.00000497,-0.00000180,0.00011879,0.00008018,0.00003168,0.0000
 6228,0.00003495,0.00000442,-0.00171438,0.00046585,-0.00236951,0.014234
 34,-0.19994287,0.13660332,0.00025358,0.00086367,-0.00014868,-0.0009445
 8,0.00514270,-0.00478117,-0.01387085,0.21065252,-0.00053184,0.00041783
 ,-0.00030214,-0.00125078,-0.00223864,0.00076974,0.00005102,0.00020345,
 0.00030039,0.00038317,0.00041926,-0.00041605,0.00001625,-0.00006857,0.
 00001184,-0.00000350,0.00001655,0.00000724,-0.00000596,0.00000611,-0.0
 0000149,0.00001007,-0.00000677,-0.00002435,-0.00014412,-0.00002964,0.0
 0024328,0.00000034,0.00002441,0.00002088,0.00004918,0.00000852,-0.0000
 4374,-0.00002376,-0.00003926,0.00000495,-0.00000080,-0.00000745,0.0000
 0574,-0.00002336,-0.00000129,-0.00000072,-0.00001947,-0.00000715,-0.00
 000258,-0.00002579,-0.00012915,0.00005042,-0.00023380,0.00001808,-0.00
 002501,-0.00316590,0.00959906,-0.00906996,-0.01177996,0.13413183,-0.17
 066803,-0.00016632,0.00003051,0.00031069,-0.00140812,0.01777173,-0.014
 53317,0.01645957,-0.14928077,0.18152887,-0.00102230,0.00017140,0.00017
 922,0.00086344,-0.00384186,0.00229086,0.00113947,0.00185815,0.00000588
 ,0.00072883,0.00023558,-0.00042460,0.00001866,-0.00010854,0.00003683,-
 0.00000994,0.00002974,0.00001352,-0.00000863,0.00001343,-0.00000206,0.
 00001602,-0.00000827,-0.00003603,-0.00016337,0.00001307,0.00027200,0.0
 0000322,0.00003008,0.00001026,0.00011165,-0.00002181,-0.00011009,-0.00
 000091,-0.00001311,0.00000907,-0.00001846,0.00000204,-0.00000109,-0.00
 001882,0.00000311,0.00000092,-0.00002059,-0.00001554,-0.00000376,-0.00
 056987,-0.00031102,-0.00017606,-0.00011863,0.00015672,0.00008501,-0.01
 692475,-0.03194097,-0.01659945,-0.05727456,-0.04027366,-0.02059235,-0.
 00309780,0.00151213,-0.00425946,0.00504819,0.01790677,0.00864646,0.000
 13587,0.00167162,0.00181388,0.07118327,0.00027949,-0.00005789,-0.00059
 410,-0.00026051,-0.00133194,0.00173658,0.00138205,0.00028388,0.0009540
 3,0.00009063,-0.00008352,-0.00004170,0.00000921,-0.00002433,-0.0000035
 3,-0.00000084,0.00000353,0.00000591,-0.00000262,0.00000588,0.00000020,
 0.00000371,-0.00000391,-0.00000655,-0.00001667,0.00000954,0.00000929,-
 0.00000080,0.00000799,-0.00001243,0.00007763,0.00000714,-0.00004450,-0
 .00002640,0.00000610,0.00004167,-0.00000011,0.00000418,-0.00000183,-0.
 00001094,0.00000387,0.00000045,0.00000619,0.00000158,0.00000454,-0.000
 08603,0.00002061,-0.00003665,-0.00006954,0.00001892,-0.00000656,-0.004
 26155,0.00548396,0.00193023,-0.04709561,-0.25535035,-0.10738482,0.0010
 3802,0.00090315,-0.00057498,-0.00035194,-0.00380527,-0.00127628,-0.003
 63430,-0.01739976,-0.01083867,0.05293094,0.27129663,-0.00038382,0.0002
 1274,-0.00000994,-0.00101533,-0.00310770,0.00167976,0.00205317,0.00134
 173,0.00050652,0.00029270,0.00015406,-0.00017411,0.00001942,-0.0000496
 5,0.00000548,-0.00000124,0.00000938,0.00000709,-0.00000306,0.00000649,
 -0.00000180,0.00000312,-0.00000118,-0.00001489,-0.00006737,0.00000301,
 0.00011553,0.00000513,0.00001332,-0.00000800,0.00006129,0.00001249,-0.
 00003638,0.00001531,-0.00000154,-0.00001402,-0.00000788,-0.00000078,0.
 00000037,-0.00000208,0.00000013,0.00000452,-0.00001224,-0.00000631,-0.
 00000314,-0.00016410,-0.00011363,-0.00004242,-0.00005789,0.00005311,0.
 00001545,-0.00785023,-0.00774706,-0.00445710,-0.02286950,-0.10453516,-
 0.10139387,-0.00044974,0.00064555,-0.00145965,-0.00363310,-0.02208916,
 -0.01080100,0.00522640,0.01906049,0.01183320,0.02884106,0.11613968,0.1
 0424839\\-0.00000097,-0.00000528,0.00000228,0.00000376,-0.00000135,0.0
 0000494,0.00000079,0.00000130,0.00000670,0.00001829,-0.00000355,-0.000
 01688,-0.00000160,-0.00000144,0.00000882,-0.00000381,-0.00000364,0.000
 00183,-0.00000016,0.00000122,0.00000567,0.00000325,-0.00000371,-0.0000
 0041,-0.00001300,0.00000170,-0.00000685,0.00000099,-0.00000558,-0.0000
 0018,-0.00000922,-0.00000188,-0.00000172,0.00000062,0.00000234,-0.0000
 0198,0.00000252,0.00000703,-0.00000097,0.00000107,0.00000668,-0.000001
 15,0.00000057,0.00000638,-0.00000383,0.00000076,0.00001327,-0.00000763
 ,0.00000078,0.00000645,0.00000747,0.00000106,-0.00000141,-0.00000217,-
 0.00000232,-0.00000360,0.00000141,0.00000009,-0.00000159,-0.00000258,0
 .00000002,-0.00000226,0.00000259,-0.00000239,-0.00000538,0.00000032,-0
 .00000112,-0.00000571,0.00000430\\\@


 QUANTUM MECHANICS IS BOHRING -- M.S. GORDON
 Job cpu time:       0 days  2 hours 44 minutes  2.1 seconds.
 Elapsed time:       0 days  0 hours  6 minutes 51.3 seconds.
 File lengths (MBytes):  RWF=    398 Int=      0 D2E=      0 Chk=     24 Scr=      1
 Normal termination of Gaussian 16 at Wed Apr 14 02:18:31 2021.
