 Entering Gaussian System, Link 0=g16
 Initial command:
 /apps/gaussian/16/A.03/g16/l1.exe "/beegfs/scratch/user/q/tla25/Gau-13246.inp" -scrdir="/beegfs/scratch/user/q/tla25/"
 Entering Link 1 = /apps/gaussian/16/A.03/g16/l1.exe PID=     13247.
  
 Copyright (c) 1988,1990,1992,1993,1995,1998,2003,2009,2016,
            Gaussian, Inc.  All Rights Reserved.
  
 This is part of the Gaussian(R) 16 program.  It is based on
 the Gaussian(R) 09 system (copyright 2009, Gaussian, Inc.),
 the Gaussian(R) 03 system (copyright 2003, Gaussian, Inc.),
 the Gaussian(R) 98 system (copyright 1998, Gaussian, Inc.),
 the Gaussian(R) 94 system (copyright 1995, Gaussian, Inc.),
 the Gaussian 92(TM) system (copyright 1992, Gaussian, Inc.),
 the Gaussian 90(TM) system (copyright 1990, Gaussian, Inc.),
 the Gaussian 88(TM) system (copyright 1988, Gaussian, Inc.),
 the Gaussian 86(TM) system (copyright 1986, Carnegie Mellon
 University), and the Gaussian 82(TM) system (copyright 1983,
 Carnegie Mellon University). Gaussian is a federally registered
 trademark of Gaussian, Inc.
  
 This software contains proprietary and confidential information,
 including trade secrets, belonging to Gaussian, Inc.
  
 This software is provided under written license and may be
 used, copied, transmitted, or stored only in accord with that
 written license.
  
 The following legend is applicable only to US Government
 contracts under FAR:
  
                    RESTRICTED RIGHTS LEGEND
  
 Use, reproduction and disclosure by the US Government is
 subject to restrictions as set forth in subparagraphs (a)
 and (c) of the Commercial Computer Software - Restricted
 Rights clause in FAR 52.227-19.
  
 Gaussian, Inc.
 340 Quinnipiac St., Bldg. 40, Wallingford CT 06492
  
  
 ---------------------------------------------------------------
 Warning -- This program may not be used in any manner that
 competes with the business of Gaussian, Inc. or will provide
 assistance to any competitor of Gaussian, Inc.  The licensee
 of this program is prohibited from giving any competitor of
 Gaussian, Inc. access to this program.  By using this program,
 the user acknowledges that Gaussian, Inc. is engaged in the
 business of creating and licensing software in the field of
 computational chemistry and represents and warrants to the
 licensee that it is not a competitor of Gaussian, Inc. and that
 it will not use this program in any manner prohibited above.
 ---------------------------------------------------------------
  

 Cite this work as:
 Gaussian 16, Revision A.03,
 M. J. Frisch, G. W. Trucks, H. B. Schlegel, G. E. Scuseria, 
 M. A. Robb, J. R. Cheeseman, G. Scalmani, V. Barone, 
 G. A. Petersson, H. Nakatsuji, X. Li, M. Caricato, A. V. Marenich, 
 J. Bloino, B. G. Janesko, R. Gomperts, B. Mennucci, H. P. Hratchian, 
 J. V. Ortiz, A. F. Izmaylov, J. L. Sonnenberg, D. Williams-Young, 
 F. Ding, F. Lipparini, F. Egidi, J. Goings, B. Peng, A. Petrone, 
 T. Henderson, D. Ranasinghe, V. G. Zakrzewski, J. Gao, N. Rega, 
 G. Zheng, W. Liang, M. Hada, M. Ehara, K. Toyota, R. Fukuda, 
 J. Hasegawa, M. Ishida, T. Nakajima, Y. Honda, O. Kitao, H. Nakai, 
 T. Vreven, K. Throssell, J. A. Montgomery, Jr., J. E. Peralta, 
 F. Ogliaro, M. J. Bearpark, J. J. Heyd, E. N. Brothers, K. N. Kudin, 
 V. N. Staroverov, T. A. Keith, R. Kobayashi, J. Normand, 
 K. Raghavachari, A. P. Rendell, J. C. Burant, S. S. Iyengar, 
 J. Tomasi, M. Cossi, J. M. Millam, M. Klene, C. Adamo, R. Cammi, 
 J. W. Ochterski, R. L. Martin, K. Morokuma, O. Farkas, 
 J. B. Foresman, and D. J. Fox, Gaussian, Inc., Wallingford CT, 2016.
 
 ******************************************
 Gaussian 16:  ES64L-G16RevA.03 25-Dec-2016
                19-Feb-2021 
 ******************************************
 %nprocshared=16
 Will use up to   16 processors via shared memory.
 %mem=48GB
 ----------------------------------------------------------------------
 # wB97XD def2tzvp, opt=(ts, noeigen, calcfc, maxcycles=70, maxstep=8),
  freq=noraman, scrf=(iefpcm, solvent=water)
 ----------------------------------------------------------------------
 1/5=1,6=70,8=8,10=4,11=1,18=20,26=3,38=1/1,3;
 2/9=110,12=2,17=6,18=5,40=1/2;
 3/5=44,7=101,11=2,25=1,30=1,70=2201,71=2,72=1,74=-58,140=1/1,2,3;
 4//1;
 5/5=2,38=5,53=1/2;
 8/6=4,10=90,11=11/1;
 11/6=1,8=1,9=11,15=111,16=1/1,2,10;
 10/6=1,13=1/2;
 6/7=2,8=2,9=2,10=2,28=1/1;
 7/10=1,18=20,25=1/1,2,3,16;
 1/5=1,6=70,8=8,10=4,11=1,18=20,26=3/3(2);
 2/9=110/2;
 99//99;
 2/9=110/2;
 3/5=44,7=101,11=2,25=1,30=1,70=2205,71=1,72=1,74=-58/1,2,3;
 4/5=5,16=3,69=1/1;
 5/5=2,38=5,53=1/2;
 7//1,2,3,16;
 1/5=1,6=70,8=8,11=1,18=20,26=3/3(-5);
 2/9=110/2;
 6/7=2,8=2,9=2,10=2,19=2,28=1/1;
 99/9=1/99;
 ------------------------
 1_iteration/TS-679-1.out
 ------------------------
 Symbolic Z-matrix:
 Charge =  0 Multiplicity = 1
 C                    -0.71053  -0.35449  -0.01681 
 C                     0.57564   0.28991  -0.20913 
 O                     0.65104   1.45722  -0.60233 
 C                    -1.84906   0.37747  -0.2683 
 C                    -3.39492   2.4418    1.07532 
 H                    -3.52781   3.0492    1.97111 
 H                    -3.08611   3.08481   0.25221 
 H                    -4.34141   1.96984   0.82094 
 N                    -2.38153   1.40768   1.27469 
 H                    -1.48916   1.80704   1.54306 
 H                    -2.65278   0.74032   1.988 
 Br                   -3.49771  -0.50343  -0.6759 
 H                    -1.70668   1.25359  -0.88482 
 Cl                   -0.8106   -1.92606   0.75082 
 N                     1.68277  -0.47323   0.05869 
 C                     3.03707  -0.13462  -0.02399 
 C                     3.51269   1.08883  -0.49734 
 C                     4.88028   1.32401  -0.54128 
 C                     5.79044   0.36513  -0.1261 
 C                     5.31575  -0.85316   0.34209 
 C                     3.95671  -1.10162   0.39386 
 H                     1.49583  -1.40713   0.3851 
 H                     2.8142    1.84087  -0.82469 
 H                     5.23334   2.27895  -0.91103 
 H                     6.8539    0.5613   -0.16649 
 H                     6.00756  -1.61829   0.67145 
 H                     3.59791  -2.05576   0.76254 
 
 Add virtual bond connecting atoms N9         and C4         Dist= 3.65D+00.

 GradGradGradGradGradGradGradGradGradGradGradGradGradGradGradGradGradGrad
 Berny optimization.
 Initialization pass.
                           ----------------------------
                           !    Initial Parameters    !
                           ! (Angstroms and Degrees)  !
 --------------------------                            --------------------------
 ! Name  Definition              Value          Derivative Info.                !
 --------------------------------------------------------------------------------
 ! R1    R(1,2)                  1.4514         calculate D2E/DX2 analytically  !
 ! R2    R(1,4)                  1.3767         calculate D2E/DX2 analytically  !
 ! R3    R(1,14)                 1.7519         calculate D2E/DX2 analytically  !
 ! R4    R(2,3)                  1.2341         calculate D2E/DX2 analytically  !
 ! R5    R(2,15)                 1.3711         calculate D2E/DX2 analytically  !
 ! R6    R(4,9)                  1.9302         calculate D2E/DX2 analytically  !
 ! R7    R(4,12)                 1.9132         calculate D2E/DX2 analytically  !
 ! R8    R(4,13)                 1.0807         calculate D2E/DX2 analytically  !
 ! R9    R(5,6)                  1.0904         calculate D2E/DX2 analytically  !
 ! R10   R(5,7)                  1.0892         calculate D2E/DX2 analytically  !
 ! R11   R(5,8)                  1.0878         calculate D2E/DX2 analytically  !
 ! R12   R(5,9)                  1.4615         calculate D2E/DX2 analytically  !
 ! R13   R(9,10)                 1.0138         calculate D2E/DX2 analytically  !
 ! R14   R(9,11)                 1.0138         calculate D2E/DX2 analytically  !
 ! R15   R(15,16)                1.3984         calculate D2E/DX2 analytically  !
 ! R16   R(15,22)                1.0068         calculate D2E/DX2 analytically  !
 ! R17   R(16,17)                1.3954         calculate D2E/DX2 analytically  !
 ! R18   R(16,21)                1.3984         calculate D2E/DX2 analytically  !
 ! R19   R(17,18)                1.3884         calculate D2E/DX2 analytically  !
 ! R20   R(17,23)                1.0773         calculate D2E/DX2 analytically  !
 ! R21   R(18,19)                1.3857         calculate D2E/DX2 analytically  !
 ! R22   R(18,24)                1.0832         calculate D2E/DX2 analytically  !
 ! R23   R(19,20)                1.3888         calculate D2E/DX2 analytically  !
 ! R24   R(19,25)                1.0822         calculate D2E/DX2 analytically  !
 ! R25   R(20,21)                1.3825         calculate D2E/DX2 analytically  !
 ! R26   R(20,26)                1.0828         calculate D2E/DX2 analytically  !
 ! R27   R(21,27)                1.084          calculate D2E/DX2 analytically  !
 ! A1    A(2,1,4)              118.2035         calculate D2E/DX2 analytically  !
 ! A2    A(2,1,14)             120.4627         calculate D2E/DX2 analytically  !
 ! A3    A(4,1,14)             120.6481         calculate D2E/DX2 analytically  !
 ! A4    A(1,2,3)              121.0874         calculate D2E/DX2 analytically  !
 ! A5    A(1,2,15)             116.2679         calculate D2E/DX2 analytically  !
 ! A6    A(3,2,15)             122.6425         calculate D2E/DX2 analytically  !
 ! A7    A(1,4,9)              111.4621         calculate D2E/DX2 analytically  !
 ! A8    A(1,4,12)             120.4495         calculate D2E/DX2 analytically  !
 ! A9    A(1,4,13)             115.2319         calculate D2E/DX2 analytically  !
 ! A10   A(9,4,12)             100.2732         calculate D2E/DX2 analytically  !
 ! A11   A(9,4,13)              93.4219         calculate D2E/DX2 analytically  !
 ! A12   A(12,4,13)            111.4238         calculate D2E/DX2 analytically  !
 ! A13   A(6,5,7)              109.0579         calculate D2E/DX2 analytically  !
 ! A14   A(6,5,8)              109.132          calculate D2E/DX2 analytically  !
 ! A15   A(6,5,9)              111.504          calculate D2E/DX2 analytically  !
 ! A16   A(7,5,8)              109.0327         calculate D2E/DX2 analytically  !
 ! A17   A(7,5,9)              108.9176         calculate D2E/DX2 analytically  !
 ! A18   A(8,5,9)              109.1605         calculate D2E/DX2 analytically  !
 ! A19   A(4,9,5)              117.3789         calculate D2E/DX2 analytically  !
 ! A20   A(4,9,10)             100.3138         calculate D2E/DX2 analytically  !
 ! A21   A(4,9,11)             106.5543         calculate D2E/DX2 analytically  !
 ! A22   A(5,9,10)             111.5738         calculate D2E/DX2 analytically  !
 ! A23   A(5,9,11)             112.1006         calculate D2E/DX2 analytically  !
 ! A24   A(10,9,11)            107.9727         calculate D2E/DX2 analytically  !
 ! A25   A(2,15,16)            129.4708         calculate D2E/DX2 analytically  !
 ! A26   A(2,15,22)            115.448          calculate D2E/DX2 analytically  !
 ! A27   A(16,15,22)           115.0611         calculate D2E/DX2 analytically  !
 ! A28   A(15,16,17)           124.2254         calculate D2E/DX2 analytically  !
 ! A29   A(15,16,21)           116.8585         calculate D2E/DX2 analytically  !
 ! A30   A(17,16,21)           118.9153         calculate D2E/DX2 analytically  !
 ! A31   A(16,17,18)           119.6704         calculate D2E/DX2 analytically  !
 ! A32   A(16,17,23)           119.6127         calculate D2E/DX2 analytically  !
 ! A33   A(18,17,23)           120.7169         calculate D2E/DX2 analytically  !
 ! A34   A(17,18,19)           121.3517         calculate D2E/DX2 analytically  !
 ! A35   A(17,18,24)           118.7648         calculate D2E/DX2 analytically  !
 ! A36   A(19,18,24)           119.8834         calculate D2E/DX2 analytically  !
 ! A37   A(18,19,20)           118.9158         calculate D2E/DX2 analytically  !
 ! A38   A(18,19,25)           120.587          calculate D2E/DX2 analytically  !
 ! A39   A(20,19,25)           120.4973         calculate D2E/DX2 analytically  !
 ! A40   A(19,20,21)           120.4152         calculate D2E/DX2 analytically  !
 ! A41   A(19,20,26)           120.2664         calculate D2E/DX2 analytically  !
 ! A42   A(21,20,26)           119.3183         calculate D2E/DX2 analytically  !
 ! A43   A(16,21,20)           120.7313         calculate D2E/DX2 analytically  !
 ! A44   A(16,21,27)           119.5136         calculate D2E/DX2 analytically  !
 ! A45   A(20,21,27)           119.7551         calculate D2E/DX2 analytically  !
 ! D1    D(4,1,2,3)             -0.8338         calculate D2E/DX2 analytically  !
 ! D2    D(4,1,2,15)           179.706          calculate D2E/DX2 analytically  !
 ! D3    D(14,1,2,3)          -171.4065         calculate D2E/DX2 analytically  !
 ! D4    D(14,1,2,15)            9.1332         calculate D2E/DX2 analytically  !
 ! D5    D(2,1,4,9)            -85.8395         calculate D2E/DX2 analytically  !
 ! D6    D(2,1,4,12)           157.1983         calculate D2E/DX2 analytically  !
 ! D7    D(2,1,4,13)            19.0033         calculate D2E/DX2 analytically  !
 ! D8    D(14,1,4,9)            84.715          calculate D2E/DX2 analytically  !
 ! D9    D(14,1,4,12)          -32.2472         calculate D2E/DX2 analytically  !
 ! D10   D(14,1,4,13)         -170.4422         calculate D2E/DX2 analytically  !
 ! D11   D(1,2,15,16)         -179.5945         calculate D2E/DX2 analytically  !
 ! D12   D(1,2,15,22)           -1.3258         calculate D2E/DX2 analytically  !
 ! D13   D(3,2,15,16)            0.9544         calculate D2E/DX2 analytically  !
 ! D14   D(3,2,15,22)          179.2231         calculate D2E/DX2 analytically  !
 ! D15   D(1,4,9,5)            167.3255         calculate D2E/DX2 analytically  !
 ! D16   D(1,4,9,10)            46.3195         calculate D2E/DX2 analytically  !
 ! D17   D(1,4,9,11)           -66.0939         calculate D2E/DX2 analytically  !
 ! D18   D(12,4,9,5)           -64.0168         calculate D2E/DX2 analytically  !
 ! D19   D(12,4,9,10)          174.9772         calculate D2E/DX2 analytically  !
 ! D20   D(12,4,9,11)           62.5638         calculate D2E/DX2 analytically  !
 ! D21   D(13,4,9,5)            48.4852         calculate D2E/DX2 analytically  !
 ! D22   D(13,4,9,10)          -72.5208         calculate D2E/DX2 analytically  !
 ! D23   D(13,4,9,11)          175.0658         calculate D2E/DX2 analytically  !
 ! D24   D(6,5,9,4)           -172.4722         calculate D2E/DX2 analytically  !
 ! D25   D(6,5,9,10)           -57.5376         calculate D2E/DX2 analytically  !
 ! D26   D(6,5,9,11)            63.7063         calculate D2E/DX2 analytically  !
 ! D27   D(7,5,9,4)            -52.073          calculate D2E/DX2 analytically  !
 ! D28   D(7,5,9,10)            62.8615         calculate D2E/DX2 analytically  !
 ! D29   D(7,5,9,11)          -175.8946         calculate D2E/DX2 analytically  !
 ! D30   D(8,5,9,4)             66.8758         calculate D2E/DX2 analytically  !
 ! D31   D(8,5,9,10)          -178.1897         calculate D2E/DX2 analytically  !
 ! D32   D(8,5,9,11)           -56.9458         calculate D2E/DX2 analytically  !
 ! D33   D(2,15,16,17)          -4.1656         calculate D2E/DX2 analytically  !
 ! D34   D(2,15,16,21)         176.1533         calculate D2E/DX2 analytically  !
 ! D35   D(22,15,16,17)        177.5603         calculate D2E/DX2 analytically  !
 ! D36   D(22,15,16,21)         -2.1208         calculate D2E/DX2 analytically  !
 ! D37   D(15,16,17,18)       -179.8507         calculate D2E/DX2 analytically  !
 ! D38   D(15,16,17,23)          0.1575         calculate D2E/DX2 analytically  !
 ! D39   D(21,16,17,18)         -0.1757         calculate D2E/DX2 analytically  !
 ! D40   D(21,16,17,23)        179.8325         calculate D2E/DX2 analytically  !
 ! D41   D(15,16,21,20)        179.7774         calculate D2E/DX2 analytically  !
 ! D42   D(15,16,21,27)         -0.2514         calculate D2E/DX2 analytically  !
 ! D43   D(17,16,21,20)          0.0786         calculate D2E/DX2 analytically  !
 ! D44   D(17,16,21,27)       -179.9502         calculate D2E/DX2 analytically  !
 ! D45   D(16,17,18,19)          0.1396         calculate D2E/DX2 analytically  !
 ! D46   D(16,17,18,24)       -179.9785         calculate D2E/DX2 analytically  !
 ! D47   D(23,17,18,19)       -179.8687         calculate D2E/DX2 analytically  !
 ! D48   D(23,17,18,24)          0.0132         calculate D2E/DX2 analytically  !
 ! D49   D(17,18,19,20)         -0.0019         calculate D2E/DX2 analytically  !
 ! D50   D(17,18,19,25)        179.9471         calculate D2E/DX2 analytically  !
 ! D51   D(24,18,19,20)       -179.8825         calculate D2E/DX2 analytically  !
 ! D52   D(24,18,19,25)          0.0665         calculate D2E/DX2 analytically  !
 ! D53   D(18,19,20,21)         -0.0975         calculate D2E/DX2 analytically  !
 ! D54   D(18,19,20,26)        179.9615         calculate D2E/DX2 analytically  !
 ! D55   D(25,19,20,21)        179.9534         calculate D2E/DX2 analytically  !
 ! D56   D(25,19,20,26)          0.0124         calculate D2E/DX2 analytically  !
 ! D57   D(19,20,21,16)          0.059          calculate D2E/DX2 analytically  !
 ! D58   D(19,20,21,27)       -179.9121         calculate D2E/DX2 analytically  !
 ! D59   D(26,20,21,16)       -179.9994         calculate D2E/DX2 analytically  !
 ! D60   D(26,20,21,27)          0.0294         calculate D2E/DX2 analytically  !
 --------------------------------------------------------------------------------
 Trust Radius=8.00D-02 FncErr=1.00D-07 GrdErr=1.00D-06 EigMax=2.50D+02 EigMin=1.00D-04
 Number of steps in this run=     70 maximum allowed number of steps=    162.
 Search for a saddle point of order  1.
 GradGradGradGradGradGradGradGradGradGradGradGradGradGradGradGradGradGrad

                          Input orientation:                          
 ---------------------------------------------------------------------
 Center     Atomic      Atomic             Coordinates (Angstroms)
 Number     Number       Type             X           Y           Z
 ---------------------------------------------------------------------
      1          6           0       -0.710530   -0.354490   -0.016810
      2          6           0        0.575640    0.289910   -0.209130
      3          8           0        0.651040    1.457220   -0.602330
      4          6           0       -1.849060    0.377470   -0.268300
      5          6           0       -3.394920    2.441800    1.075320
      6          1           0       -3.527810    3.049200    1.971110
      7          1           0       -3.086110    3.084810    0.252210
      8          1           0       -4.341410    1.969840    0.820940
      9          7           0       -2.381530    1.407680    1.274690
     10          1           0       -1.489160    1.807040    1.543060
     11          1           0       -2.652780    0.740320    1.988000
     12         35           0       -3.497710   -0.503430   -0.675900
     13          1           0       -1.706680    1.253590   -0.884820
     14         17           0       -0.810600   -1.926060    0.750820
     15          7           0        1.682770   -0.473230    0.058690
     16          6           0        3.037070   -0.134620   -0.023990
     17          6           0        3.512690    1.088830   -0.497340
     18          6           0        4.880280    1.324010   -0.541280
     19          6           0        5.790440    0.365130   -0.126100
     20          6           0        5.315750   -0.853160    0.342090
     21          6           0        3.956710   -1.101620    0.393860
     22          1           0        1.495830   -1.407130    0.385100
     23          1           0        2.814200    1.840870   -0.824690
     24          1           0        5.233340    2.278950   -0.911030
     25          1           0        6.853900    0.561300   -0.166490
     26          1           0        6.007560   -1.618290    0.671450
     27          1           0        3.597910   -2.055760    0.762540
 ---------------------------------------------------------------------
                    Distance matrix (angstroms):
                    1          2          3          4          5
     1  C    0.000000
     2  C    1.451369   0.000000
     3  O    2.340726   1.234060   0.000000
     4  C    1.376686   2.427002   2.743708   0.000000
     5  C    4.027150   4.695294   4.489287   2.907999   0.000000
     6  H    4.844997   5.404205   5.159436   3.869276   1.090428
     7  H    4.188620   4.629548   4.164802   3.021740   1.089190
     8  H    4.391768   5.297225   5.216611   3.151808   1.087795
     9  N    2.750537   3.492275   3.566811   1.930201   1.461544
    10  H    2.776990   3.104070   3.050496   2.335428   2.062431
    11  H    2.998367   3.931023   4.258988   2.422502   2.068524
    12  Br   2.867918   4.176056   4.589301   1.913157   3.428078
    13  H    2.081268   2.567921   2.383298   1.080720   2.846778
    14  Cl   1.751885   2.784545   3.926065   2.724565   5.085490
    15  N    2.397433   1.371075   2.286493   3.647525   5.942548
    16  C    3.754051   2.504624   2.926016   4.918962   7.015477
    17  C    4.488838   3.057385   2.887174   5.413581   7.212410
    18  C    5.860852   4.439551   4.231778   6.801064   8.505397
    19  C    6.541591   5.216003   5.275688   7.640833   9.493514
    20  C    6.057519   4.907045   5.290492   7.295309   9.341850
    21  C    4.744469   3.705616   4.297384   6.027697   8.189425
    22  H    2.477419   2.019852   3.145344   3.847079   6.261797
    23  H    4.230366   2.792050   2.208142   4.919055   6.521068
    24  H    6.562334   5.113034   4.665620   7.361326   8.855449
    25  H    7.621134   6.284268   6.282364   8.705497  10.493650
    26  H    6.870489   5.824294   6.306630   8.160433  10.249589
    27  H    4.697272   3.947205   4.784134   6.054149   8.320189
                    6          7          8          9         10
     6  H    0.000000
     7  H    1.775101   0.000000
     8  H    1.774783   1.772679   0.000000
     9  N    2.119799   2.086783   2.088790   0.000000
    10  H    2.425342   2.418520   2.946742   1.013822   0.000000
    11  H    2.469188   2.949131   2.392743   1.013784   1.640084
    12  Br   4.430434   3.729111   3.011548   2.950085   3.781049
    13  H    3.833675   2.559107   3.219384   2.267741   2.499645
    14  Cl   5.798754   5.525882   5.258286   3.722376   3.876096
    15  N    6.573812   5.953093   6.545255   4.640583   4.179010
    16  C    7.564045   6.923464   7.719108   5.781564   5.168409
    17  C    7.713944   6.934690   8.012548   6.163082   5.449547
    18  C    8.943398   8.197159   9.344105   7.485896   6.719193
    19  C    9.921306   9.291551  10.301765   8.356448   7.606430
    20  C    9.802585   9.279382  10.072704   8.076463   7.404444
    21  C    8.702589   8.194362   8.858615   6.873553   6.280005
    22  H    6.900092   6.417894   6.757755   4.873238   4.536731
    23  H    7.035457   6.125419   7.343534   5.620557   4.911852
    24  H    9.255148   8.438945   9.735045   7.970115   7.171978
    25  H   10.887556  10.263879  11.326693   9.385442   8.607037
    26  H   10.695694  10.246450  10.954369   8.938525   8.288148
    27  H    8.848567   8.447604   8.901779   6.929027   6.434960
                   11         12         13         14         15
    11  H    0.000000
    12  Br   3.058951   0.000000
    13  H    3.067841   2.517649   0.000000
    14  Cl   3.468980   3.358566   3.686252   0.000000
    15  N    4.898156   5.232390   3.919246   2.967601   0.000000
    16  C    6.098198   6.577565   5.017103   4.314412   1.398435
    17  C    6.656680   7.191167   5.236326   5.416484   2.469374
    18  C    7.967744   8.576035   6.596288   6.679715   3.716733
    19  C    8.711954   9.344860   7.587610   7.042178   4.196421
    20  C    8.291301   8.878947   7.433588   6.233004   3.663769
    21  C    7.044103   7.554508   6.265463   4.851223   2.382859
    22  H    4.938805   5.184384   4.352953   2.392208   1.006806
    23  H    6.245823   6.734841   4.559262   5.459960   2.723151
    24  H    8.541817   9.166687   7.015406   7.548050   4.595802
    25  H    9.749402  10.418684   8.618515   8.110054   5.278404
    26  H    9.071815   9.664803   8.377301   6.825564   4.515578
    27  H    6.956360   7.404503   6.465622   4.410433   2.582163
                   16         17         18         19         20
    16  C    0.000000
    17  C    1.395387   0.000000
    18  C    2.406785   1.388360   0.000000
    19  C    2.800218   2.418617   1.385719   0.000000
    20  C    2.417167   2.779747   2.389570   1.388799   0.000000
    21  C    1.398365   2.406130   2.758831   2.405053   1.382535
    22  H    2.040112   3.328099   4.446550   4.673960   3.860119
    23  H    2.143211   1.077316   2.148523   3.394678   3.857062
    24  H    3.381680   2.132642   1.083179   2.142238   3.374495
    25  H    3.882371   3.398740   2.148807   1.082156   2.150641
    26  H    3.392451   3.862505   3.376182   2.148763   1.082822
    27  H    2.150337   3.388658   3.842820   3.384904   2.138691
                   21         22         23         24         25
    21  C    0.000000
    22  H    2.479787   0.000000
    23  H    3.383554   3.708260   0.000000
    24  H    3.841975   5.407044   2.460001   0.000000
    25  H    3.387182   5.734796   4.288322   2.476061   0.000000
    26  H    2.133071   4.525737   4.939815   4.276931   2.483757
    27  H    1.083995   2.232022   4.279863   4.925970   4.279436
                   26         27
    26  H    0.000000
    27  H    2.450733   0.000000
 Stoichiometry    C10H12BrClN2O
 Framework group  C1[X(C10H12BrClN2O)]
 Deg. of freedom    75
 Full point group                 C1      NOp   1
 Largest Abelian subgroup         C1      NOp   1
 Largest concise Abelian subgroup C1      NOp   1
                         Standard orientation:                         
 ---------------------------------------------------------------------
 Center     Atomic      Atomic             Coordinates (Angstroms)
 Number     Number       Type             X           Y           Z
 ---------------------------------------------------------------------
      1          6           0       -0.710531   -0.354491   -0.016808
      2          6           0        0.575639    0.289909   -0.209128
      3          8           0        0.651039    1.457219   -0.602328
      4          6           0       -1.849061    0.377469   -0.268298
      5          6           0       -3.394921    2.441799    1.075322
      6          1           0       -3.527811    3.049199    1.971112
      7          1           0       -3.086111    3.084809    0.252212
      8          1           0       -4.341411    1.969839    0.820942
      9          7           0       -2.381531    1.407679    1.274692
     10          1           0       -1.489161    1.807039    1.543062
     11          1           0       -2.652781    0.740319    1.988002
     12         35           0       -3.497711   -0.503431   -0.675898
     13          1           0       -1.706681    1.253589   -0.884818
     14         17           0       -0.810601   -1.926061    0.750822
     15          7           0        1.682769   -0.473231    0.058692
     16          6           0        3.037069   -0.134621   -0.023988
     17          6           0        3.512689    1.088829   -0.497338
     18          6           0        4.880279    1.324009   -0.541278
     19          6           0        5.790439    0.365129   -0.126098
     20          6           0        5.315749   -0.853161    0.342092
     21          6           0        3.956709   -1.101621    0.393862
     22          1           0        1.495829   -1.407131    0.385102
     23          1           0        2.814199    1.840869   -0.824688
     24          1           0        5.233339    2.278949   -0.911028
     25          1           0        6.853899    0.561299   -0.166488
     26          1           0        6.007559   -1.618291    0.671452
     27          1           0        3.597909   -2.055761    0.762542
 ---------------------------------------------------------------------
 Rotational constants (GHZ):           0.9753436           0.1638549           0.1505867
 Standard basis: def2TZVP (5D, 7F)
 There are   637 symmetry adapted cartesian basis functions of A   symmetry.
 There are   560 symmetry adapted basis functions of A   symmetry.
   560 basis functions,   942 primitive gaussians,   637 cartesian basis functions
    73 alpha electrons       73 beta electrons
       nuclear repulsion energy      1410.6083663866 Hartrees.
 NAtoms=   27 NActive=   27 NUniq=   27 SFac= 1.00D+00 NAtFMM=   60 NAOKFM=F Big=F
 Integral buffers will be    131072 words long.
 Raffenetti 2 integral format.
 Two-electron integral symmetry is turned on.
 Nuclear repulsion after empirical dispersion term =     1410.5914905823 Hartrees.
 Force inversion solution in PCM.
 ------------------------------------------------------------------------------
 Polarizable Continuum Model (PCM)
 =================================
 Model                : PCM.
 Atomic radii         : UFF (Universal Force Field).
 Polarization charges : Total charges.
 Charge compensation  : None.
 Solution method      : Matrix inversion.
 Cavity type          : Scaled VdW (van der Waals Surface) (Alpha=1.100).
 Cavity algorithm     : GePol (No added spheres)
                        Default sphere list used, NSphG=   27.
                        Lebedev-Laikov grids with approx.  5.0 points / Ang**2.
                        Smoothing algorithm: York/Karplus (Gamma=1.0000).
                        Polarization charges: spherical gaussians, with
                                              point-specific exponents (IZeta= 3).
                        Self-potential: point-specific (ISelfS= 7).
                        Self-field    : sphere-specific E.n sum rule (ISelfD= 2).
 1st derivatives      : Analytical E(r).r(x)/FMM algorithm (CHGder, D1EAlg=3).
                        Cavity 1st derivative terms included.
 2nd derivatives      : Analytical E(r).r(xy)/FMM algorithm (CHGder, D2EAlg=3).
                        Cavity 2nd derivative terms included.
 Solvent              : Water, Eps=  78.355300 Eps(inf)=   1.777849
 ------------------------------------------------------------------------------
 One-electron integrals computed using PRISM.
   1 Symmetry operations used in ECPInt.
 ECPInt:  NShTT=   24310 NPrTT=   79825 LenC2=   20995 LenP2D=   48768.
 LDataN:  DoStor=T MaxTD1= 6 Len=  172
 NBasis=   560 RedAO= T EigKep=  8.06D-06  NBF=   560
 NBsUse=   560 1.00D-06 EigRej= -1.00D+00 NBFU=   560
 ExpMin= 9.52D-02 ExpMax= 5.65D+05 ExpMxC= 5.46D+03 IAcc=3 IRadAn=         5 AccDes= 0.00D+00
 Harris functional with IExCor= 4639 and IRadAn=       5 diagonalized for initial guess.
 HarFok:  IExCor= 4639 AccDes= 0.00D+00 IRadAn=         5 IDoV= 1 UseB2=F ITyADJ=14
 ICtDFT=  3500011 ScaDFX=  1.000000  1.000000  1.000000  1.000000
 FoFCou: FMM=F IPFlag=           0 FMFlag=      100000 FMFlg1=           0
         NFxFlg=           0 DoJE=T BraDBF=F KetDBF=T FulRan=T
         wScrn=  0.000000 ICntrl=       500 IOpCl=  0 I1Cent=   200000004 NGrid=           0
         NMat0=    1 NMatS0=      1 NMatT0=    0 NMatD0=    1 NMtDS0=    0 NMtDT0=    0
 Petite list used in FoFCou.
 Requested convergence on RMS density matrix=1.00D-08 within 128 cycles.
 Requested convergence on MAX density matrix=1.00D-06.
 Requested convergence on             energy=1.00D-06.
 No special actions if energy rises.
 Inv3:  Mode=1 IEnd=    15828627.
 Iteration    1 A*A^-1 deviation from unit magnitude is 5.22D-15 for   2285.
 Iteration    1 A*A^-1 deviation from orthogonality  is 2.42D-15 for   2288   2167.
 Iteration    1 A^-1*A deviation from unit magnitude is 5.11D-15 for   2293.
 Iteration    1 A^-1*A deviation from orthogonality  is 1.36D-14 for   1030   1011.
 Error on total polarization charges =  0.01776
 SCF Done:  E(RwB97XD) =  -3607.44325701     A.U. after   15 cycles
            NFock= 15  Conv=0.32D-08     -V/T= 2.0019
 DoSCS=F DFT=T ScalE2(SS,OS)=  1.000000  1.000000
 Range of M.O.s used for correlation:     1   560
 NBasis=   560 NAE=    73 NBE=    73 NFC=     0 NFV=     0
 NROrb=    560 NOA=    73 NOB=    73 NVA=   487 NVB=   487

 **** Warning!!: The largest alpha MO coefficient is  0.60727560D+02

   1 Symmetry operations used in ECPInt.
 ECPInt:  NShTT=   24310 NPrTT=   79825 LenC2=   20995 LenP2D=   48768.
 LDataN:  DoStor=T MaxTD1= 7 Len=  274
 Symmetrizing basis deriv contribution to polar:
 IMax=3 JMax=2 DiffMx= 0.00D+00
 G2DrvN: will do    28 centers at a time, making    1 passes.
 Calling FoFCou, ICntrl=  3107 FMM=F I1Cent=   0 AccDes= 0.00D+00.
 NEqPCM:  Using equilibrium solvation (IEInf=0, Eps=  78.3553, EpsInf=   1.7778)
 G2PCM: DoFxE=T DoFxN=T DoGrad=T DoDP/DQ/DG/TGxP=FFFF NFrqRd=   0 IEInf=0 SqF1=F DoCFld=F IF1Alg=4.
 End of G2Drv F.D. properties file   721 does not exist.
 End of G2Drv F.D. properties file   722 does not exist.
 End of G2Drv F.D. properties file   788 does not exist.
          IDoAtm=111111111111111111111111111
 NEqPCM:  Using equilibrium solvation (IEInf=0, Eps=  78.3553, EpsInf=   1.7778)
          Differentiating once with respect to nuclear coordinates.
 CalDSu exits because no D1Ps are significant.
          There are    84 degrees of freedom in the 1st order CPHF.  IDoFFX=6 NUNeed=     0.
     78 vectors produced by pass  0 Test12= 4.23D-14 1.19D-09 XBig12= 1.28D-01 1.47D-01.
 AX will form    78 AO Fock derivatives at one time.
     78 vectors produced by pass  1 Test12= 4.23D-14 1.19D-09 XBig12= 2.69D-02 3.63D-02.
     78 vectors produced by pass  2 Test12= 4.23D-14 1.19D-09 XBig12= 8.22D-04 4.29D-03.
     78 vectors produced by pass  3 Test12= 4.23D-14 1.19D-09 XBig12= 1.34D-05 6.02D-04.
     78 vectors produced by pass  4 Test12= 4.23D-14 1.19D-09 XBig12= 2.13D-07 5.43D-05.
     78 vectors produced by pass  5 Test12= 4.23D-14 1.19D-09 XBig12= 1.93D-09 4.38D-06.
     78 vectors produced by pass  6 Test12= 4.23D-14 1.19D-09 XBig12= 1.36D-11 2.32D-07.
     40 vectors produced by pass  7 Test12= 4.23D-14 1.19D-09 XBig12= 1.03D-13 2.29D-08.
      9 vectors produced by pass  8 Test12= 4.23D-14 1.19D-09 XBig12= 4.21D-15 6.40D-09.
      5 vectors produced by pass  9 Test12= 4.23D-14 1.19D-09 XBig12= 2.68D-15 6.49D-09.
      4 vectors produced by pass 10 Test12= 4.23D-14 1.19D-09 XBig12= 1.58D-15 4.17D-09.
      3 vectors produced by pass 11 Test12= 4.23D-14 1.19D-09 XBig12= 2.05D-15 4.92D-09.
      2 vectors produced by pass 12 Test12= 4.23D-14 1.19D-09 XBig12= 4.27D-16 2.51D-09.
 InvSVY:  IOpt=1 It=  1 EMax= 5.00D-16
 Solved reduced A of dimension   609 with    84 vectors.
 End of Minotr F.D. properties file   721 does not exist.
 End of Minotr F.D. properties file   722 does not exist.
 End of Minotr F.D. properties file   788 does not exist.

 **********************************************************************

            Population analysis using the SCF density.

 **********************************************************************

 Orbital symmetries:
       Occupied  (A) (A) (A) (A) (A) (A) (A) (A) (A) (A) (A) (A)
                 (A) (A) (A) (A) (A) (A) (A) (A) (A) (A) (A) (A)
                 (A) (A) (A) (A) (A) (A) (A) (A) (A) (A) (A) (A)
                 (A) (A) (A) (A) (A) (A) (A) (A) (A) (A) (A) (A)
                 (A) (A) (A) (A) (A) (A) (A) (A) (A) (A) (A) (A)
                 (A) (A) (A) (A) (A) (A) (A) (A) (A) (A) (A) (A)
                 (A)
       Virtual   (A) (A) (A) (A) (A) (A) (A) (A) (A) (A) (A) (A)
                 (A) (A) (A) (A) (A) (A) (A) (A) (A) (A) (A) (A)
                 (A) (A) (A) (A) (A) (A) (A) (A) (A) (A) (A) (A)
                 (A) (A) (A) (A) (A) (A) (A) (A) (A) (A) (A) (A)
                 (A) (A) (A) (A) (A) (A) (A) (A) (A) (A) (A) (A)
                 (A) (A) (A) (A) (A) (A) (A) (A) (A) (A) (A) (A)
                 (A) (A) (A) (A) (A) (A) (A) (A) (A) (A) (A) (A)
                 (A) (A) (A) (A) (A) (A) (A) (A) (A) (A) (A) (A)
                 (A) (A) (A) (A) (A) (A) (A) (A) (A) (A) (A) (A)
                 (A) (A) (A) (A) (A) (A) (A) (A) (A) (A) (A) (A)
                 (A) (A) (A) (A) (A) (A) (A) (A) (A) (A) (A) (A)
                 (A) (A) (A) (A) (A) (A) (A) (A) (A) (A) (A) (A)
                 (A) (A) (A) (A) (A) (A) (A) (A) (A) (A) (A) (A)
                 (A) (A) (A) (A) (A) (A) (A) (A) (A) (A) (A) (A)
                 (A) (A) (A) (A) (A) (A) (A) (A) (A) (A) (A) (A)
                 (A) (A) (A) (A) (A) (A) (A) (A) (A) (A) (A) (A)
                 (A) (A) (A) (A) (A) (A) (A) (A) (A) (A) (A) (A)
                 (A) (A) (A) (A) (A) (A) (A) (A) (A) (A) (A) (A)
                 (A) (A) (A) (A) (A) (A) (A) (A) (A) (A) (A) (A)
                 (A) (A) (A) (A) (A) (A) (A) (A) (A) (A) (A) (A)
                 (A) (A) (A) (A) (A) (A) (A) (A) (A) (A) (A) (A)
                 (A) (A) (A) (A) (A) (A) (A) (A) (A) (A) (A) (A)
                 (A) (A) (A) (A) (A) (A) (A) (A) (A) (A) (A) (A)
                 (A) (A) (A) (A) (A) (A) (A) (A) (A) (A) (A) (A)
                 (A) (A) (A) (A) (A) (A) (A) (A) (A) (A) (A) (A)
                 (A) (A) (A) (A) (A) (A) (A) (A) (A) (A) (A) (A)
                 (A) (A) (A) (A) (A) (A) (A) (A) (A) (A) (A) (A)
                 (A) (A) (A) (A) (A) (A) (A) (A) (A) (A) (A) (A)
                 (A) (A) (A) (A) (A) (A) (A) (A) (A) (A) (A) (A)
                 (A) (A) (A) (A) (A) (A) (A) (A) (A) (A) (A) (A)
                 (A) (A) (A) (A) (A) (A) (A) (A) (A) (A) (A) (A)
                 (A) (A) (A) (A) (A) (A) (A) (A) (A) (A) (A) (A)
                 (A) (A) (A) (A) (A) (A) (A) (A) (A) (A) (A) (A)
                 (A) (A) (A) (A) (A) (A) (A) (A) (A) (A) (A) (A)
                 (A) (A) (A) (A) (A) (A) (A) (A) (A) (A) (A) (A)
                 (A) (A) (A) (A) (A) (A) (A) (A) (A) (A) (A) (A)
                 (A) (A) (A) (A) (A) (A) (A) (A) (A) (A) (A) (A)
                 (A) (A) (A) (A) (A) (A) (A) (A) (A) (A) (A) (A)
                 (A) (A) (A) (A) (A) (A) (A) (A) (A) (A) (A) (A)
                 (A) (A) (A) (A) (A) (A) (A) (A) (A) (A) (A) (A)
                 (A) (A) (A) (A) (A) (A) (A)
 The electronic state is 1-A.
 Alpha  occ. eigenvalues -- -483.13864-101.69918 -62.68722 -56.47839 -56.47484
 Alpha  occ. eigenvalues --  -56.47466 -19.21152 -14.48822 -14.46748 -10.39554
 Alpha  occ. eigenvalues --  -10.38884 -10.33981 -10.32021 -10.31763 -10.29112
 Alpha  occ. eigenvalues --  -10.28957 -10.28939 -10.28333 -10.28298  -9.58444
 Alpha  occ. eigenvalues --   -8.82844  -7.33069  -7.32250  -7.32207  -6.65010
 Alpha  occ. eigenvalues --   -6.63872  -6.63812  -2.75399  -2.75076  -2.75029
 Alpha  occ. eigenvalues --   -2.74108  -2.74107  -1.14224  -1.04530  -1.04229
 Alpha  occ. eigenvalues --   -0.97878  -0.95415  -0.91559  -0.85542  -0.85184
 Alpha  occ. eigenvalues --   -0.83205  -0.79067  -0.74982  -0.71648  -0.68598
 Alpha  occ. eigenvalues --   -0.64945  -0.63987  -0.62976  -0.60290  -0.57995
 Alpha  occ. eigenvalues --   -0.56744  -0.55166  -0.54122  -0.53041  -0.52619
 Alpha  occ. eigenvalues --   -0.52077  -0.51105  -0.50126  -0.48462  -0.47894
 Alpha  occ. eigenvalues --   -0.47153  -0.45730  -0.44815  -0.42946  -0.42630
 Alpha  occ. eigenvalues --   -0.41553  -0.39860  -0.37909  -0.37405  -0.34554
 Alpha  occ. eigenvalues --   -0.33815  -0.30607  -0.27364
 Alpha virt. eigenvalues --    0.03233   0.05257   0.05336   0.08313   0.10007
 Alpha virt. eigenvalues --    0.12466   0.13052   0.14213   0.14853   0.15415
 Alpha virt. eigenvalues --    0.16335   0.16954   0.17635   0.18077   0.18711
 Alpha virt. eigenvalues --    0.19436   0.20145   0.21301   0.21554   0.22630
 Alpha virt. eigenvalues --    0.23165   0.23363   0.24240   0.26335   0.26401
 Alpha virt. eigenvalues --    0.27130   0.27599   0.28776   0.29703   0.29836
 Alpha virt. eigenvalues --    0.29986   0.30510   0.30933   0.31586   0.31932
 Alpha virt. eigenvalues --    0.32607   0.33177   0.33691   0.34059   0.34505
 Alpha virt. eigenvalues --    0.35101   0.36381   0.36631   0.36958   0.37386
 Alpha virt. eigenvalues --    0.37685   0.38685   0.38828   0.40668   0.41238
 Alpha virt. eigenvalues --    0.42039   0.42172   0.42944   0.44032   0.44124
 Alpha virt. eigenvalues --    0.44378   0.45538   0.46510   0.46909   0.47613
 Alpha virt. eigenvalues --    0.48185   0.49084   0.49828   0.50203   0.50234
 Alpha virt. eigenvalues --    0.50619   0.51070   0.51901   0.53106   0.53341
 Alpha virt. eigenvalues --    0.53956   0.54456   0.55346   0.55814   0.56062
 Alpha virt. eigenvalues --    0.56879   0.57510   0.57803   0.58573   0.58905
 Alpha virt. eigenvalues --    0.59784   0.60835   0.61861   0.62106   0.63188
 Alpha virt. eigenvalues --    0.63970   0.64448   0.65258   0.66667   0.67491
 Alpha virt. eigenvalues --    0.67871   0.68521   0.69969   0.70439   0.71502
 Alpha virt. eigenvalues --    0.71862   0.73820   0.74252   0.75252   0.76549
 Alpha virt. eigenvalues --    0.77439   0.78015   0.78999   0.79826   0.80977
 Alpha virt. eigenvalues --    0.82205   0.82647   0.83422   0.84285   0.84586
 Alpha virt. eigenvalues --    0.85813   0.88469   0.89169   0.89805   0.90293
 Alpha virt. eigenvalues --    0.90855   0.92421   0.93771   0.94326   0.95405
 Alpha virt. eigenvalues --    0.96286   0.97617   0.98181   0.98782   0.99528
 Alpha virt. eigenvalues --    1.00786   1.01970   1.04255   1.07140   1.07883
 Alpha virt. eigenvalues --    1.08635   1.09448   1.09886   1.10761   1.11955
 Alpha virt. eigenvalues --    1.12195   1.15269   1.16825   1.18041   1.20915
 Alpha virt. eigenvalues --    1.21269   1.23100   1.24402   1.25949   1.26960
 Alpha virt. eigenvalues --    1.28566   1.29558   1.30253   1.30654   1.31723
 Alpha virt. eigenvalues --    1.32340   1.32478   1.35530   1.36656   1.38304
 Alpha virt. eigenvalues --    1.39399   1.40192   1.40942   1.41703   1.43409
 Alpha virt. eigenvalues --    1.44490   1.45095   1.45732   1.47218   1.48170
 Alpha virt. eigenvalues --    1.49121   1.49856   1.51165   1.52936   1.54251
 Alpha virt. eigenvalues --    1.54333   1.55688   1.56559   1.58121   1.58348
 Alpha virt. eigenvalues --    1.58619   1.59631   1.60241   1.60547   1.61126
 Alpha virt. eigenvalues --    1.61784   1.62797   1.63419   1.64381   1.65041
 Alpha virt. eigenvalues --    1.66098   1.66245   1.67439   1.68628   1.69933
 Alpha virt. eigenvalues --    1.70364   1.71240   1.71828   1.72758   1.73869
 Alpha virt. eigenvalues --    1.74680   1.75849   1.76149   1.76858   1.77202
 Alpha virt. eigenvalues --    1.77406   1.80345   1.80809   1.81570   1.83469
 Alpha virt. eigenvalues --    1.83969   1.84429   1.85771   1.87517   1.88896
 Alpha virt. eigenvalues --    1.89217   1.89820   1.90647   1.92524   1.93722
 Alpha virt. eigenvalues --    1.94543   1.95030   1.95709   1.97195   1.97951
 Alpha virt. eigenvalues --    1.99797   2.00367   2.01735   2.03521   2.04461
 Alpha virt. eigenvalues --    2.04927   2.05980   2.06822   2.08872   2.10377
 Alpha virt. eigenvalues --    2.11712   2.13294   2.13748   2.14199   2.15507
 Alpha virt. eigenvalues --    2.16186   2.17601   2.18073   2.18688   2.20411
 Alpha virt. eigenvalues --    2.21358   2.22359   2.23753   2.26516   2.26755
 Alpha virt. eigenvalues --    2.29122   2.29937   2.30969   2.32809   2.33307
 Alpha virt. eigenvalues --    2.35118   2.37283   2.37323   2.38967   2.40161
 Alpha virt. eigenvalues --    2.41008   2.41395   2.42424   2.43879   2.44875
 Alpha virt. eigenvalues --    2.46463   2.47512   2.49675   2.52514   2.53909
 Alpha virt. eigenvalues --    2.55610   2.56793   2.59270   2.60509   2.61275
 Alpha virt. eigenvalues --    2.61616   2.64786   2.65894   2.66400   2.67479
 Alpha virt. eigenvalues --    2.67676   2.69062   2.69978   2.71387   2.73923
 Alpha virt. eigenvalues --    2.73981   2.75585   2.76297   2.76863   2.77176
 Alpha virt. eigenvalues --    2.77999   2.79080   2.79960   2.81530   2.83531
 Alpha virt. eigenvalues --    2.84438   2.85094   2.85155   2.86481   2.86520
 Alpha virt. eigenvalues --    2.87488   2.88866   2.89919   2.91179   2.91861
 Alpha virt. eigenvalues --    2.92775   2.93599   2.94768   2.95369   2.96125
 Alpha virt. eigenvalues --    2.97838   2.98475   2.99641   3.02169   3.04047
 Alpha virt. eigenvalues --    3.05936   3.06655   3.08249   3.09884   3.11556
 Alpha virt. eigenvalues --    3.13602   3.14286   3.15893   3.17169   3.17909
 Alpha virt. eigenvalues --    3.19213   3.19374   3.20115   3.21521   3.22259
 Alpha virt. eigenvalues --    3.22926   3.24038   3.24631   3.25771   3.26209
 Alpha virt. eigenvalues --    3.27297   3.29009   3.29509   3.30689   3.32982
 Alpha virt. eigenvalues --    3.33317   3.33839   3.35052   3.37194   3.38313
 Alpha virt. eigenvalues --    3.38431   3.38708   3.40261   3.41921   3.42766
 Alpha virt. eigenvalues --    3.43459   3.44759   3.45327   3.46623   3.47358
 Alpha virt. eigenvalues --    3.48873   3.50705   3.51481   3.52299   3.53163
 Alpha virt. eigenvalues --    3.54891   3.55015   3.56212   3.57755   3.59129
 Alpha virt. eigenvalues --    3.60014   3.60339   3.61533   3.62776   3.63637
 Alpha virt. eigenvalues --    3.64785   3.66830   3.69977   3.73354   3.73773
 Alpha virt. eigenvalues --    3.75526   3.76920   3.79423   3.83399   3.83919
 Alpha virt. eigenvalues --    3.83961   3.86036   3.88812   3.89320   3.91331
 Alpha virt. eigenvalues --    3.97140   3.98592   3.99952   4.05011   4.06602
 Alpha virt. eigenvalues --    4.09641   4.10862   4.11993   4.14468   4.14568
 Alpha virt. eigenvalues --    4.15685   4.16258   4.18526   4.19172   4.20105
 Alpha virt. eigenvalues --    4.20940   4.23895   4.26572   4.27045   4.28023
 Alpha virt. eigenvalues --    4.28751   4.29682   4.32197   4.32576   4.34208
 Alpha virt. eigenvalues --    4.35309   4.39301   4.40648   4.41502   4.42926
 Alpha virt. eigenvalues --    4.43703   4.47090   4.50452   4.52747   4.55393
 Alpha virt. eigenvalues --    4.57470   4.62213   4.65828   4.67271   4.71528
 Alpha virt. eigenvalues --    4.74845   4.76695   4.78294   4.79692   4.84287
 Alpha virt. eigenvalues --    4.90641   4.92725   4.94116   4.94461   4.95951
 Alpha virt. eigenvalues --    4.97951   4.99598   5.02405   5.04171   5.05559
 Alpha virt. eigenvalues --    5.08360   5.16269   5.17063   5.17937   5.21434
 Alpha virt. eigenvalues --    5.22675   5.23574   5.28188   5.29438   5.34589
 Alpha virt. eigenvalues --    5.36501   5.37500   5.40852   5.42264   5.46827
 Alpha virt. eigenvalues --    5.48375   5.54811   5.57433   5.67181   5.70850
 Alpha virt. eigenvalues --    5.75076   5.79410   5.86780   6.00213   6.11778
 Alpha virt. eigenvalues --    6.19214   6.19908   6.44953   6.50400   6.72369
 Alpha virt. eigenvalues --    6.89108   6.92913   7.19478   7.27829   7.74055
 Alpha virt. eigenvalues --   10.84491  10.96917  11.47202  22.23291  22.44274
 Alpha virt. eigenvalues --   22.46275  22.72016  22.73122  22.73846  22.85960
 Alpha virt. eigenvalues --   22.96739  23.36691  23.50668  25.88453  32.14203
 Alpha virt. eigenvalues --   32.82960  44.11750
          Condensed to atoms (all electrons):
               1          2          3          4          5          6
     1  C    5.676713   0.300830  -0.140270   0.384394   0.006709  -0.000684
     2  C    0.300830   4.502106   0.574630  -0.058519  -0.000666   0.000032
     3  O   -0.140270   0.574630   8.139904   0.022848  -0.000126   0.000016
     4  C    0.384394  -0.058519   0.022848   4.966297  -0.011214   0.002313
     5  C    0.006709  -0.000666  -0.000126  -0.011214   4.852153   0.407404
     6  H   -0.000684   0.000032   0.000016   0.002313   0.407404   0.508457
     7  H    0.000897  -0.000219   0.000176  -0.001112   0.414879  -0.021237
     8  H   -0.000229   0.000043  -0.000002  -0.005472   0.417410  -0.019094
     9  N   -0.108068   0.019595   0.000847   0.087430   0.231983  -0.024261
    10  H   -0.005362   0.001711   0.004100  -0.012454  -0.019253  -0.004792
    11  H    0.001169  -0.000456  -0.000014  -0.010002  -0.022665  -0.003807
    12  Br  -0.032432   0.005260   0.000471   0.286996  -0.004418   0.000289
    13  H   -0.052398  -0.006352   0.023299   0.436852   0.001353  -0.000270
    14  Cl   0.253803  -0.058605   0.003655  -0.046461  -0.000250   0.000022
    15  N   -0.099460   0.406075  -0.102144   0.016539  -0.000001   0.000001
    16  C    0.007058  -0.033203  -0.012838  -0.001045  -0.000003   0.000000
    17  C    0.003737  -0.026620  -0.007966   0.000379  -0.000001  -0.000000
    18  C   -0.000348   0.000608  -0.000386  -0.000010  -0.000000  -0.000000
    19  C    0.000060  -0.000418   0.000229   0.000002   0.000000   0.000000
    20  C   -0.000125   0.000149  -0.000074  -0.000013  -0.000000   0.000000
    21  C   -0.002597   0.008864   0.003213  -0.000090  -0.000000  -0.000000
    22  H   -0.010414  -0.038478   0.003837   0.001011   0.000002  -0.000000
    23  H    0.001883  -0.006295   0.029368  -0.000112   0.000000  -0.000000
    24  H   -0.000009  -0.000016  -0.000132   0.000000  -0.000000   0.000000
    25  H    0.000001   0.000001   0.000002  -0.000000  -0.000000  -0.000000
    26  H   -0.000001   0.000019  -0.000001   0.000000  -0.000000   0.000000
    27  H   -0.000023   0.000480   0.000010   0.000013  -0.000000   0.000000
               7          8          9         10         11         12
     1  C    0.000897  -0.000229  -0.108068  -0.005362   0.001169  -0.032432
     2  C   -0.000219   0.000043   0.019595   0.001711  -0.000456   0.005260
     3  O    0.000176  -0.000002   0.000847   0.004100  -0.000014   0.000471
     4  C   -0.001112  -0.005472   0.087430  -0.012454  -0.010002   0.286996
     5  C    0.414879   0.417410   0.231983  -0.019253  -0.022665  -0.004418
     6  H   -0.021237  -0.019094  -0.024261  -0.004792  -0.003807   0.000289
     7  H    0.511800  -0.024219  -0.037918  -0.005047   0.005773  -0.000021
     8  H   -0.024219   0.506391  -0.032788   0.005730  -0.005919   0.005874
     9  N   -0.037918  -0.032788   6.579415   0.357738   0.356517  -0.058875
    10  H   -0.005047   0.005730   0.357738   0.409904  -0.020770   0.003789
    11  H    0.005773  -0.005919   0.356517  -0.020770   0.406430   0.001154
    12  Br  -0.000021   0.005874  -0.058875   0.003789   0.001154  34.895575
    13  H    0.003075  -0.000266  -0.040758  -0.002070   0.002671  -0.026817
    14  Cl  -0.000015   0.000019   0.003003   0.000356   0.002735  -0.010310
    15  N   -0.000003   0.000000   0.000342  -0.000003  -0.000051  -0.000251
    16  C   -0.000001   0.000000   0.000056   0.000003  -0.000005  -0.000007
    17  C    0.000000   0.000000  -0.000011   0.000032   0.000001  -0.000003
    18  C   -0.000000   0.000000   0.000000  -0.000001   0.000000  -0.000000
    19  C   -0.000000  -0.000000   0.000000  -0.000000  -0.000000   0.000000
    20  C   -0.000000  -0.000000   0.000000  -0.000000   0.000000   0.000000
    21  C   -0.000000  -0.000000   0.000003  -0.000003   0.000000  -0.000001
    22  H    0.000000   0.000000  -0.000075  -0.000015  -0.000003   0.000028
    23  H   -0.000000   0.000000  -0.000008  -0.000006   0.000000   0.000000
    24  H   -0.000000   0.000000   0.000000  -0.000000  -0.000000  -0.000000
    25  H   -0.000000   0.000000   0.000000  -0.000000  -0.000000   0.000000
    26  H   -0.000000   0.000000  -0.000000   0.000000   0.000000  -0.000000
    27  H   -0.000000  -0.000000   0.000000  -0.000000  -0.000000  -0.000000
              13         14         15         16         17         18
     1  C   -0.052398   0.253803  -0.099460   0.007058   0.003737  -0.000348
     2  C   -0.006352  -0.058605   0.406075  -0.033203  -0.026620   0.000608
     3  O    0.023299   0.003655  -0.102144  -0.012838  -0.007966  -0.000386
     4  C    0.436852  -0.046461   0.016539  -0.001045   0.000379  -0.000010
     5  C    0.001353  -0.000250  -0.000001  -0.000003  -0.000001  -0.000000
     6  H   -0.000270   0.000022   0.000001   0.000000  -0.000000  -0.000000
     7  H    0.003075  -0.000015  -0.000003  -0.000001   0.000000  -0.000000
     8  H   -0.000266   0.000019   0.000000   0.000000   0.000000   0.000000
     9  N   -0.040758   0.003003   0.000342   0.000056  -0.000011   0.000000
    10  H   -0.002070   0.000356  -0.000003   0.000003   0.000032  -0.000001
    11  H    0.002671   0.002735  -0.000051  -0.000005   0.000001   0.000000
    12  Br  -0.026817  -0.010310  -0.000251  -0.000007  -0.000003  -0.000000
    13  H    0.465836   0.005079   0.001507  -0.000196   0.000039   0.000002
    14  Cl   0.005079  16.990779  -0.011332   0.007460  -0.000196   0.000007
    15  N    0.001507  -0.011332   6.466684   0.331482  -0.052759   0.002714
    16  C   -0.000196   0.007460   0.331482   4.871036   0.360669   0.016327
    17  C    0.000039  -0.000196  -0.052759   0.360669   5.211001   0.400089
    18  C    0.000002   0.000007   0.002714   0.016327   0.400089   4.983416
    19  C    0.000000   0.000000   0.000557  -0.095207   0.033985   0.415774
    20  C   -0.000000  -0.000037   0.003454   0.013162  -0.083555   0.009749
    21  C   -0.000006  -0.001666  -0.066514   0.361479   0.055646  -0.080802
    22  H   -0.000211   0.020655   0.381086  -0.037147   0.006761  -0.000013
    23  H    0.000061  -0.000085  -0.001648  -0.047440   0.433004  -0.037734
    24  H   -0.000000   0.000000  -0.000108   0.013857  -0.058420   0.451928
    25  H   -0.000000  -0.000000  -0.000000  -0.005185   0.013234  -0.060095
    26  H    0.000000  -0.000000  -0.000084   0.014828  -0.005116   0.012004
    27  H   -0.000000   0.000713  -0.000420  -0.068227   0.010156  -0.003273
              19         20         21         22         23         24
     1  C    0.000060  -0.000125  -0.002597  -0.010414   0.001883  -0.000009
     2  C   -0.000418   0.000149   0.008864  -0.038478  -0.006295  -0.000016
     3  O    0.000229  -0.000074   0.003213   0.003837   0.029368  -0.000132
     4  C    0.000002  -0.000013  -0.000090   0.001011  -0.000112   0.000000
     5  C    0.000000  -0.000000  -0.000000   0.000002   0.000000  -0.000000
     6  H    0.000000   0.000000  -0.000000  -0.000000  -0.000000   0.000000
     7  H   -0.000000  -0.000000  -0.000000   0.000000  -0.000000  -0.000000
     8  H   -0.000000  -0.000000  -0.000000   0.000000   0.000000   0.000000
     9  N    0.000000   0.000000   0.000003  -0.000075  -0.000008   0.000000
    10  H   -0.000000  -0.000000  -0.000003  -0.000015  -0.000006  -0.000000
    11  H   -0.000000   0.000000   0.000000  -0.000003   0.000000  -0.000000
    12  Br   0.000000   0.000000  -0.000001   0.000028   0.000000  -0.000000
    13  H    0.000000  -0.000000  -0.000006  -0.000211   0.000061  -0.000000
    14  Cl   0.000000  -0.000037  -0.001666   0.020655  -0.000085   0.000000
    15  N    0.000557   0.003454  -0.066514   0.381086  -0.001648  -0.000108
    16  C   -0.095207   0.013162   0.361479  -0.037147  -0.047440   0.013857
    17  C    0.033985  -0.083555   0.055646   0.006761   0.433004  -0.058420
    18  C    0.415774   0.009749  -0.080802  -0.000013  -0.037734   0.451928
    19  C    5.039711   0.410928   0.029957  -0.000086   0.008730  -0.056388
    20  C    0.410928   4.946733   0.428223   0.000984  -0.003344   0.011046
    21  C    0.029957   0.428223   5.174097  -0.004127   0.008088  -0.003887
    22  H   -0.000086   0.000984  -0.004127   0.438092  -0.000405   0.000018
    23  H    0.008730  -0.003344   0.008088  -0.000405   0.460134  -0.006377
    24  H   -0.056388   0.011046  -0.003887   0.000018  -0.006377   0.513495
    25  H    0.457418  -0.058999   0.012821  -0.000001   0.000039  -0.006639
    26  H   -0.058458   0.457333  -0.062420  -0.000046  -0.000002  -0.000074
    27  H    0.009419  -0.037451   0.449250   0.003708   0.000007   0.000014
              25         26         27
     1  C    0.000001  -0.000001  -0.000023
     2  C    0.000001   0.000019   0.000480
     3  O    0.000002  -0.000001   0.000010
     4  C   -0.000000   0.000000   0.000013
     5  C   -0.000000  -0.000000  -0.000000
     6  H   -0.000000   0.000000   0.000000
     7  H   -0.000000  -0.000000  -0.000000
     8  H    0.000000   0.000000  -0.000000
     9  N    0.000000  -0.000000   0.000000
    10  H   -0.000000   0.000000  -0.000000
    11  H   -0.000000   0.000000  -0.000000
    12  Br   0.000000  -0.000000  -0.000000
    13  H   -0.000000   0.000000  -0.000000
    14  Cl  -0.000000  -0.000000   0.000713
    15  N   -0.000000  -0.000084  -0.000420
    16  C   -0.005185   0.014828  -0.068227
    17  C    0.013234  -0.005116   0.010156
    18  C   -0.060095   0.012004  -0.003273
    19  C    0.457418  -0.058458   0.009419
    20  C   -0.058999   0.457333  -0.037451
    21  C    0.012821  -0.062420   0.449250
    22  H   -0.000001  -0.000046   0.003708
    23  H    0.000039  -0.000002   0.000007
    24  H   -0.006639  -0.000074   0.000014
    25  H    0.512881  -0.006480  -0.000038
    26  H   -0.006480   0.511923  -0.007335
    27  H   -0.000038  -0.007335   0.500922
 Mulliken charges:
               1
     1  C   -0.184837
     2  C    0.409443
     3  O   -0.542655
     4  C   -0.058570
     5  C   -0.273296
     6  H    0.155608
     7  H    0.153191
     8  H    0.152522
     9  N   -0.334168
    10  H    0.286414
    11  H    0.287240
    12  Br  -0.066303
    13  H    0.189571
    14  Cl  -0.159328
    15  N   -0.275665
    16  C    0.303086
    17  C   -0.294087
    18  C   -0.109956
    19  C   -0.196214
    20  C   -0.098162
    21  C   -0.309527
    22  H    0.234837
    23  H    0.162141
    24  H    0.141690
    25  H    0.141039
    26  H    0.143908
    27  H    0.142076
 Sum of Mulliken charges =  -0.00000
 Mulliken charges with hydrogens summed into heavy atoms:
               1
     1  C   -0.184837
     2  C    0.409443
     3  O   -0.542655
     4  C    0.131001
     5  C    0.188025
     9  N    0.239487
    12  Br  -0.066303
    14  Cl  -0.159328
    15  N   -0.040828
    16  C    0.303086
    17  C   -0.131945
    18  C    0.031734
    19  C   -0.055175
    20  C    0.045746
    21  C   -0.167452
 APT charges:
               1
     1  C   -0.392317
     2  C   -0.026222
     3  O   -0.323669
     4  C   -0.429381
     5  C   -1.487623
     6  H    0.728202
     7  H    0.277494
     8  H    0.575960
     9  N   -0.443480
    10  H    0.229433
    11  H    0.568784
    12  Br   0.223531
    13  H    0.386720
    14  Cl   0.019787
    15  N   -0.479045
    16  C   -0.231269
    17  C   -0.501802
    18  C   -0.604963
    19  C   -0.740099
    20  C   -0.646354
    21  C   -0.563598
    22  H    0.419824
    23  H    0.084370
    24  H    0.796410
    25  H    1.272105
    26  H    0.994588
    27  H    0.292613
 Sum of APT charges =  -0.00000
 APT charges with hydrogens summed into heavy atoms:
               1
     1  C   -0.392317
     2  C   -0.026222
     3  O   -0.323669
     4  C   -0.042661
     5  C    0.094032
     9  N    0.354738
    12  Br   0.223531
    14  Cl   0.019787
    15  N   -0.059221
    16  C   -0.231269
    17  C   -0.417432
    18  C    0.191448
    19  C    0.532005
    20  C    0.348234
    21  C   -0.270986
 Electronic spatial extent (au):  <R**2>=           6671.3969
 Charge=             -0.0000 electrons
 Dipole moment (field-independent basis, Debye):
    X=             -4.2464    Y=              2.1517    Z=              4.7321  Tot=              6.7123
 Quadrupole moment (field-independent basis, Debye-Ang):
   XX=            -93.3181   YY=           -101.4575   ZZ=           -105.7728
   XY=            -16.5980   XZ=             -7.0361   YZ=              3.8793
 Traceless Quadrupole moment (field-independent basis, Debye-Ang):
   XX=              6.8647   YY=             -1.2747   ZZ=             -5.5900
   XY=            -16.5980   XZ=             -7.0361   YZ=              3.8793
 Octapole moment (field-independent basis, Debye-Ang**2):
  XXX=           -124.7036  YYY=              0.1498  ZZZ=              2.2698  XYY=            -50.8872
  XXY=             20.4277  XXZ=             24.8213  XZZ=            -72.8209  YZZ=              5.0139
  YYZ=              9.3298  XYZ=            -26.1992
 Hexadecapole moment (field-independent basis, Debye-Ang**3):
 XXXX=          -6268.0092 YYYY=          -1035.9542 ZZZZ=           -378.9046 XXXY=            -46.2386
 XXXZ=              8.3028 YYYX=            -30.0870 YYYZ=             17.6763 ZZZX=             24.6584
 ZZZY=             30.9619 XXYY=          -1185.1030 XXZZ=          -1241.6433 YYZZ=           -228.9375
 XXYZ=            -21.3727 YYXZ=             -5.3987 ZZXY=            -12.5453
 N-N= 1.410591490582D+03 E-N=-1.140340174212D+04  KE= 3.600484833533D+03
  Exact polarizability:   0.000   0.000   0.000   0.000   0.000   0.000
 Approx polarizability: 242.748  -3.454 204.774  -0.999 -15.713 147.476
   1 Symmetry operations used in ECPInt.
 ECPInt:  NShTT=   24310 NPrTT=   79825 LenC2=   20995 LenP2D=   48768.
 LDataN:  DoStor=T MaxTD1= 8 Len=  415
 D2PCM: PCM CHGder 2nd derivatives, FixD1E=F FixD2E=F DoIter=F DoCFld=F I1PDM=0
 Calling FoFJK, ICntrl=    100147 FMM=F ISym2X=0 I1Cent= 0 IOpClX= 0 NMat=1 NMatS=1 NMatT=0.
 ***** Axes restored to original set *****
 -------------------------------------------------------------------
 Center     Atomic                   Forces (Hartrees/Bohr)
 Number     Number              X              Y              Z
 -------------------------------------------------------------------
      1        6           0.000003961   -0.000002130   -0.000003421
      2        6           0.000005709    0.000007788   -0.000002961
      3        8          -0.000003357   -0.000006390    0.000004619
      4        6          -0.000005561   -0.000000199   -0.000000093
      5        6           0.000008247   -0.000002470   -0.000000396
      6        1          -0.000002714   -0.000006938    0.000005165
      7        1          -0.000004132   -0.000004513    0.000006710
      8        1          -0.000005396   -0.000008213   -0.000000945
      9        7          -0.000003273   -0.000002480   -0.000000152
     10        1          -0.000001065   -0.000003761    0.000002190
     11        1          -0.000002085   -0.000007824    0.000000070
     12       35           0.000003374   -0.000000203   -0.000002841
     13        1           0.000000092    0.000001594   -0.000001804
     14       17           0.000000570   -0.000004263   -0.000004683
     15        7          -0.000001015    0.000009883   -0.000006042
     16        6          -0.000003162   -0.000004731    0.000002031
     17        6           0.000000368    0.000009364   -0.000000079
     18        6           0.000000893    0.000003703    0.000003117
     19        6           0.000002471    0.000014537   -0.000002678
     20        6           0.000001809   -0.000007851    0.000004156
     21        6          -0.000000404    0.000002910   -0.000003587
     22        1           0.000003241   -0.000005088   -0.000000987
     23        1           0.000000879    0.000002247    0.000003426
     24        1          -0.000000742    0.000004127    0.000006134
     25        1           0.000000374    0.000004415    0.000002666
     26        1          -0.000000764    0.000004890   -0.000004233
     27        1           0.000001684    0.000001595   -0.000005381
 -------------------------------------------------------------------
 Cartesian Forces:  Max     0.000014537 RMS     0.000004401
 FormGI is forming the generalized inverse of G from B-inverse, IUseBI=4.

 GradGradGradGradGradGradGradGradGradGradGradGradGradGradGradGradGradGrad
 Berny optimization.
 Internal  Forces:  Max     0.000008613 RMS     0.000002025
 Search for a saddle point.
 Step number   1 out of a maximum of   70
 All quantities printed in internal units (Hartrees-Bohrs-Radians)
 Swapping is turned off.
 Second derivative matrix not updated -- analytic derivatives used.
 ITU=  0
     Eigenvalues ---   -0.03620   0.00083   0.00111   0.00153   0.00526
     Eigenvalues ---    0.00706   0.00921   0.01170   0.01239   0.01659
     Eigenvalues ---    0.01804   0.01874   0.01882   0.02344   0.02364
     Eigenvalues ---    0.02610   0.02727   0.02891   0.03043   0.03197
     Eigenvalues ---    0.04326   0.04681   0.04795   0.05352   0.05705
     Eigenvalues ---    0.05845   0.08563   0.09106   0.09985   0.10819
     Eigenvalues ---    0.11197   0.11872   0.12322   0.12654   0.13262
     Eigenvalues ---    0.13389   0.14929   0.16139   0.16849   0.17331
     Eigenvalues ---    0.17484   0.18061   0.19340   0.19476   0.20684
     Eigenvalues ---    0.22250   0.22628   0.23311   0.27188   0.27949
     Eigenvalues ---    0.32093   0.33984   0.34385   0.34617   0.34889
     Eigenvalues ---    0.35743   0.36127   0.36186   0.36467   0.36485
     Eigenvalues ---    0.36861   0.37175   0.38017   0.41776   0.43956
     Eigenvalues ---    0.45257   0.45393   0.46456   0.47545   0.47587
     Eigenvalues ---    0.48317   0.50168   0.51740   0.58110   0.74418
 Eigenvectors required to have negative eigenvalues:
                          R6        D9        D6        A11       R2
   1                   -0.89597  -0.18668  -0.17808   0.16887   0.12037
                          D7        D10       R1        R7        A10
   1                    0.10638   0.09779  -0.09260   0.09078   0.09004
 RFO step:  Lambda0=8.986141692D-12 Lambda= 0.00000000D+00.
 Linear search not attempted -- option 19 set.
 Iteration  1 RMS(Cart)=  0.00018394 RMS(Int)=  0.00000002
 Iteration  2 RMS(Cart)=  0.00000002 RMS(Int)=  0.00000000
 Variable       Old X    -DE/DX   Delta X   Delta X   Delta X     New X
                                 (Linear)    (Quad)   (Total)
    R1        2.74269   0.00000   0.00000   0.00001   0.00001   2.74270
    R2        2.60156   0.00000   0.00000   0.00000   0.00000   2.60156
    R3        3.31058   0.00000   0.00000   0.00001   0.00001   3.31059
    R4        2.33204  -0.00001   0.00000  -0.00002  -0.00002   2.33202
    R5        2.59096  -0.00000   0.00000  -0.00001  -0.00001   2.59095
    R6        3.64755  -0.00000   0.00000   0.00004   0.00004   3.64759
    R7        3.61534  -0.00000   0.00000  -0.00001  -0.00001   3.61534
    R8        2.04226   0.00000   0.00000   0.00001   0.00001   2.04227
    R9        2.06061   0.00000   0.00000   0.00000   0.00000   2.06062
   R10        2.05827  -0.00000   0.00000  -0.00001  -0.00001   2.05826
   R11        2.05564   0.00001   0.00000   0.00002   0.00002   2.05565
   R12        2.76192  -0.00000   0.00000  -0.00001  -0.00001   2.76191
   R13        1.91585   0.00000   0.00000   0.00000   0.00000   1.91585
   R14        1.91577   0.00000   0.00000   0.00000   0.00000   1.91578
   R15        2.64266  -0.00000   0.00000  -0.00001  -0.00001   2.64265
   R16        1.90259   0.00001   0.00000   0.00001   0.00001   1.90260
   R17        2.63690   0.00001   0.00000   0.00001   0.00001   2.63691
   R18        2.64253  -0.00000   0.00000  -0.00000  -0.00000   2.64253
   R19        2.62362   0.00000   0.00000   0.00000   0.00000   2.62362
   R20        2.03583  -0.00000   0.00000  -0.00000  -0.00000   2.03583
   R21        2.61863  -0.00000   0.00000  -0.00001  -0.00001   2.61862
   R22        2.04691  -0.00000   0.00000  -0.00000  -0.00000   2.04691
   R23        2.62445   0.00001   0.00000   0.00002   0.00002   2.62447
   R24        2.04498   0.00000   0.00000  -0.00000  -0.00000   2.04498
   R25        2.61261   0.00000   0.00000  -0.00000  -0.00000   2.61261
   R26        2.04624  -0.00000   0.00000  -0.00001  -0.00001   2.04623
   R27        2.04845  -0.00000   0.00000  -0.00000  -0.00000   2.04845
    A1        2.06304   0.00000   0.00000   0.00001   0.00001   2.06305
    A2        2.10247   0.00000   0.00000   0.00001   0.00001   2.10248
    A3        2.10571  -0.00000   0.00000  -0.00002  -0.00002   2.10569
    A4        2.11337  -0.00000   0.00000  -0.00000  -0.00000   2.11337
    A5        2.02926  -0.00000   0.00000  -0.00001  -0.00001   2.02925
    A6        2.14051   0.00000   0.00000   0.00001   0.00001   2.14052
    A7        1.94538   0.00000   0.00000   0.00001   0.00001   1.94539
    A8        2.10224  -0.00000   0.00000  -0.00000  -0.00000   2.10224
    A9        2.01118  -0.00000   0.00000  -0.00000  -0.00000   2.01118
   A10        1.75010  -0.00000   0.00000  -0.00003  -0.00003   1.75007
   A11        1.63052   0.00000   0.00000   0.00003   0.00003   1.63055
   A12        1.94471   0.00000   0.00000   0.00000   0.00000   1.94472
   A13        1.90342  -0.00000   0.00000   0.00001   0.00001   1.90343
   A14        1.90471   0.00000   0.00000  -0.00001  -0.00001   1.90471
   A15        1.94611  -0.00000   0.00000   0.00000   0.00000   1.94611
   A16        1.90298  -0.00000   0.00000  -0.00001  -0.00001   1.90297
   A17        1.90097   0.00000   0.00000   0.00002   0.00002   1.90099
   A18        1.90521  -0.00000   0.00000  -0.00001  -0.00001   1.90520
   A19        2.04865  -0.00000   0.00000  -0.00002  -0.00002   2.04862
   A20        1.75081   0.00000   0.00000   0.00005   0.00005   1.75086
   A21        1.85972  -0.00000   0.00000  -0.00003  -0.00003   1.85970
   A22        1.94733  -0.00000   0.00000   0.00000   0.00000   1.94734
   A23        1.95652   0.00000   0.00000  -0.00001  -0.00001   1.95652
   A24        1.88448   0.00000   0.00000   0.00000   0.00000   1.88448
   A25        2.25969   0.00001   0.00000   0.00002   0.00002   2.25971
   A26        2.01495  -0.00000   0.00000   0.00001   0.00001   2.01496
   A27        2.00820  -0.00001   0.00000  -0.00003  -0.00003   2.00816
   A28        2.16814   0.00001   0.00000   0.00002   0.00002   2.16816
   A29        2.03957  -0.00000   0.00000  -0.00001  -0.00001   2.03955
   A30        2.07546  -0.00000   0.00000  -0.00000  -0.00000   2.07546
   A31        2.08864  -0.00000   0.00000  -0.00000  -0.00000   2.08864
   A32        2.08764   0.00000   0.00000   0.00000   0.00000   2.08764
   A33        2.10691   0.00000   0.00000   0.00000   0.00000   2.10691
   A34        2.11799   0.00000   0.00000   0.00001   0.00001   2.11799
   A35        2.07284   0.00000   0.00000   0.00000   0.00000   2.07284
   A36        2.09236  -0.00000   0.00000  -0.00001  -0.00001   2.09235
   A37        2.07547  -0.00000   0.00000  -0.00000  -0.00000   2.07547
   A38        2.10464   0.00000   0.00000   0.00001   0.00001   2.10465
   A39        2.10307  -0.00000   0.00000  -0.00001  -0.00001   2.10307
   A40        2.10164  -0.00000   0.00000  -0.00001  -0.00001   2.10163
   A41        2.09904   0.00000   0.00000   0.00000   0.00000   2.09905
   A42        2.08250   0.00000   0.00000   0.00001   0.00001   2.08250
   A43        2.10716   0.00000   0.00000   0.00001   0.00001   2.10717
   A44        2.08591  -0.00000   0.00000  -0.00001  -0.00001   2.08590
   A45        2.09012  -0.00000   0.00000  -0.00000  -0.00000   2.09012
    D1       -0.01455  -0.00000   0.00000  -0.00004  -0.00004  -0.01460
    D2        3.13646   0.00000   0.00000  -0.00003  -0.00003   3.13643
    D3       -2.99161   0.00000   0.00000  -0.00004  -0.00004  -2.99165
    D4        0.15941   0.00000   0.00000  -0.00003  -0.00003   0.15938
    D5       -1.49818  -0.00000   0.00000  -0.00008  -0.00008  -1.49827
    D6        2.74363  -0.00000   0.00000  -0.00004  -0.00004   2.74358
    D7        0.33167   0.00000   0.00000  -0.00004  -0.00004   0.33163
    D8        1.47856  -0.00000   0.00000  -0.00009  -0.00009   1.47847
    D9       -0.56282  -0.00000   0.00000  -0.00005  -0.00005  -0.56287
   D10       -2.97478   0.00000   0.00000  -0.00005  -0.00005  -2.97482
   D11       -3.13451   0.00000   0.00000   0.00002   0.00002  -3.13450
   D12       -0.02314  -0.00000   0.00000   0.00002   0.00002  -0.02312
   D13        0.01666   0.00000   0.00000   0.00003   0.00003   0.01669
   D14        3.12803  -0.00000   0.00000   0.00003   0.00003   3.12806
   D15        2.92038   0.00000   0.00000  -0.00014  -0.00014   2.92024
   D16        0.80843   0.00000   0.00000  -0.00017  -0.00017   0.80826
   D17       -1.15356  -0.00000   0.00000  -0.00019  -0.00019  -1.15374
   D18       -1.11730  -0.00000   0.00000  -0.00016  -0.00016  -1.11746
   D19        3.05393  -0.00000   0.00000  -0.00019  -0.00019   3.05374
   D20        1.09194  -0.00000   0.00000  -0.00021  -0.00021   1.09174
   D21        0.84623  -0.00000   0.00000  -0.00015  -0.00015   0.84607
   D22       -1.26573  -0.00000   0.00000  -0.00018  -0.00018  -1.26591
   D23        3.05547  -0.00000   0.00000  -0.00020  -0.00020   3.05527
   D24       -3.01021  -0.00000   0.00000  -0.00030  -0.00030  -3.01051
   D25       -1.00422  -0.00000   0.00000  -0.00024  -0.00024  -1.00446
   D26        1.11188  -0.00000   0.00000  -0.00024  -0.00024   1.11165
   D27       -0.90885  -0.00000   0.00000  -0.00028  -0.00028  -0.90912
   D28        1.09714   0.00000   0.00000  -0.00022  -0.00022   1.09692
   D29       -3.06994   0.00000   0.00000  -0.00022  -0.00022  -3.07016
   D30        1.16720  -0.00000   0.00000  -0.00029  -0.00029   1.16692
   D31       -3.11000   0.00000   0.00000  -0.00023  -0.00023  -3.11022
   D32       -0.99389   0.00000   0.00000  -0.00022  -0.00022  -0.99411
   D33       -0.07270  -0.00000   0.00000   0.00028   0.00028  -0.07243
   D34        3.07446  -0.00000   0.00000   0.00025   0.00025   3.07470
   D35        3.09901   0.00000   0.00000   0.00028   0.00028   3.09929
   D36       -0.03702   0.00000   0.00000   0.00025   0.00025  -0.03677
   D37       -3.13899  -0.00000   0.00000  -0.00004  -0.00004  -3.13902
   D38        0.00275  -0.00000   0.00000  -0.00004  -0.00004   0.00271
   D39       -0.00307  -0.00000   0.00000  -0.00001  -0.00001  -0.00308
   D40        3.13867  -0.00000   0.00000  -0.00001  -0.00001   3.13866
   D41        3.13771   0.00000   0.00000   0.00004   0.00004   3.13775
   D42       -0.00439   0.00000   0.00000   0.00004   0.00004  -0.00434
   D43        0.00137   0.00000   0.00000   0.00002   0.00002   0.00139
   D44       -3.14072   0.00000   0.00000   0.00002   0.00002  -3.14071
   D45        0.00244   0.00000   0.00000  -0.00000  -0.00000   0.00243
   D46       -3.14122   0.00000   0.00000   0.00001   0.00001  -3.14121
   D47       -3.13930   0.00000   0.00000   0.00000   0.00000  -3.13930
   D48        0.00023   0.00000   0.00000   0.00001   0.00001   0.00024
   D49       -0.00003   0.00000   0.00000   0.00001   0.00001  -0.00003
   D50        3.14067   0.00000   0.00000   0.00001   0.00001   3.14068
   D51       -3.13954   0.00000   0.00000  -0.00000  -0.00000  -3.13955
   D52        0.00116  -0.00000   0.00000  -0.00000  -0.00000   0.00116
   D53       -0.00170  -0.00000   0.00000   0.00000   0.00000  -0.00170
   D54        3.14092  -0.00000   0.00000  -0.00002  -0.00002   3.14090
   D55        3.14078  -0.00000   0.00000   0.00000   0.00000   3.14078
   D56        0.00022  -0.00000   0.00000  -0.00002  -0.00002   0.00020
   D57        0.00103  -0.00000   0.00000  -0.00001  -0.00001   0.00102
   D58       -3.14006  -0.00000   0.00000  -0.00001  -0.00001  -3.14007
   D59       -3.14158   0.00000   0.00000   0.00000   0.00000  -3.14158
   D60        0.00051   0.00000   0.00000   0.00000   0.00000   0.00052
         Item               Value     Threshold  Converged?
 Maximum Force            0.000009     0.000450     YES
 RMS     Force            0.000002     0.000300     YES
 Maximum Displacement     0.000890     0.001800     YES
 RMS     Displacement     0.000184     0.001200     YES
 Predicted change in Energy=-1.579808D-09
 Optimization completed.
    -- Stationary point found.
                           ----------------------------
                           !   Optimized Parameters   !
                           ! (Angstroms and Degrees)  !
 --------------------------                            --------------------------
 ! Name  Definition              Value          Derivative Info.                !
 --------------------------------------------------------------------------------
 ! R1    R(1,2)                  1.4514         -DE/DX =    0.0                 !
 ! R2    R(1,4)                  1.3767         -DE/DX =    0.0                 !
 ! R3    R(1,14)                 1.7519         -DE/DX =    0.0                 !
 ! R4    R(2,3)                  1.2341         -DE/DX =    0.0                 !
 ! R5    R(2,15)                 1.3711         -DE/DX =    0.0                 !
 ! R6    R(4,9)                  1.9302         -DE/DX =    0.0                 !
 ! R7    R(4,12)                 1.9132         -DE/DX =    0.0                 !
 ! R8    R(4,13)                 1.0807         -DE/DX =    0.0                 !
 ! R9    R(5,6)                  1.0904         -DE/DX =    0.0                 !
 ! R10   R(5,7)                  1.0892         -DE/DX =    0.0                 !
 ! R11   R(5,8)                  1.0878         -DE/DX =    0.0                 !
 ! R12   R(5,9)                  1.4615         -DE/DX =    0.0                 !
 ! R13   R(9,10)                 1.0138         -DE/DX =    0.0                 !
 ! R14   R(9,11)                 1.0138         -DE/DX =    0.0                 !
 ! R15   R(15,16)                1.3984         -DE/DX =    0.0                 !
 ! R16   R(15,22)                1.0068         -DE/DX =    0.0                 !
 ! R17   R(16,17)                1.3954         -DE/DX =    0.0                 !
 ! R18   R(16,21)                1.3984         -DE/DX =    0.0                 !
 ! R19   R(17,18)                1.3884         -DE/DX =    0.0                 !
 ! R20   R(17,23)                1.0773         -DE/DX =    0.0                 !
 ! R21   R(18,19)                1.3857         -DE/DX =    0.0                 !
 ! R22   R(18,24)                1.0832         -DE/DX =    0.0                 !
 ! R23   R(19,20)                1.3888         -DE/DX =    0.0                 !
 ! R24   R(19,25)                1.0822         -DE/DX =    0.0                 !
 ! R25   R(20,21)                1.3825         -DE/DX =    0.0                 !
 ! R26   R(20,26)                1.0828         -DE/DX =    0.0                 !
 ! R27   R(21,27)                1.084          -DE/DX =    0.0                 !
 ! A1    A(2,1,4)              118.2035         -DE/DX =    0.0                 !
 ! A2    A(2,1,14)             120.4627         -DE/DX =    0.0                 !
 ! A3    A(4,1,14)             120.6481         -DE/DX =    0.0                 !
 ! A4    A(1,2,3)              121.0874         -DE/DX =    0.0                 !
 ! A5    A(1,2,15)             116.2679         -DE/DX =    0.0                 !
 ! A6    A(3,2,15)             122.6425         -DE/DX =    0.0                 !
 ! A7    A(1,4,9)              111.4621         -DE/DX =    0.0                 !
 ! A8    A(1,4,12)             120.4495         -DE/DX =    0.0                 !
 ! A9    A(1,4,13)             115.2319         -DE/DX =    0.0                 !
 ! A10   A(9,4,12)             100.2732         -DE/DX =    0.0                 !
 ! A11   A(9,4,13)              93.4219         -DE/DX =    0.0                 !
 ! A12   A(12,4,13)            111.4238         -DE/DX =    0.0                 !
 ! A13   A(6,5,7)              109.0579         -DE/DX =    0.0                 !
 ! A14   A(6,5,8)              109.132          -DE/DX =    0.0                 !
 ! A15   A(6,5,9)              111.504          -DE/DX =    0.0                 !
 ! A16   A(7,5,8)              109.0327         -DE/DX =    0.0                 !
 ! A17   A(7,5,9)              108.9176         -DE/DX =    0.0                 !
 ! A18   A(8,5,9)              109.1605         -DE/DX =    0.0                 !
[...]
 000407,0.00002302,-0.00001763,-0.00001103,-0.00001598,0.00006129,0.000
 06506,-0.00001513,0.00507196,-0.00588138,0.00482086,0.01124098,0.05476
 427,-0.02004899,-0.03671022,-0.02957961,0.00830608,0.04832519,-0.04860
 773,0.02439719,-0.09614136,-0.28199185,0.08267011,-0.02688970,0.641394
 39,-0.00001163,0.00008769,-0.00040354,-0.00060525,0.00024505,0.0018075
 1,-0.00016111,-0.00000420,-0.00016373,-0.00006181,-0.00000446,-0.00001
 838,-0.00000695,-0.00000118,-0.00001934,0.00000503,-0.00000666,0.00000
 230,-0.00000053,-0.00000105,0.00000234,0.00000073,-0.00000002,-0.00000
 015,0.00005243,-0.00005306,-0.00004266,0.00000414,-0.00000122,-0.00000
 090,0.00000018,-0.00000327,-0.00000207,-0.00006702,0.00000281,-0.00000
 136,0.00000956,-0.00001464,-0.00001222,-0.00002089,-0.00000386,0.00002
 630,-0.00170615,0.00449280,0.00377309,-0.00628013,-0.01794025,0.011080
 00,0.01333321,0.00849510,-0.00834468,-0.01728114,0.02255227,-0.0015879
 2,0.03500808,0.08493270,-0.09798780,0.03093147,-0.19990593,0.22223918,
 -0.00453752,0.00181253,-0.00101632,0.00770505,-0.01095848,0.00355624,-
 0.00121488,0.00480644,-0.00161692,0.00231806,-0.00212318,-0.00068581,0
 .00018782,-0.00005852,0.00043754,-0.00013254,0.00015795,-0.00003497,0.
 00000388,0.00000997,-0.00004945,-0.00001859,0.00000099,-0.00002142,-0.
 00096634,0.00083630,0.00093499,-0.00000158,-0.00009552,-0.00015007,-0.
 00000324,0.00008863,0.00000236,-0.00056417,-0.00004414,0.00004882,0.00
 004059,0.00007732,0.00018354,-0.00000897,-0.00016395,0.00013280,-0.064
 46503,0.03353882,-0.01553334,-0.18918342,0.04296383,-0.02070003,0.0636
 2415,0.04032901,-0.01434934,-0.06684236,0.02325366,-0.01159128,-0.0072
 1963,-0.08477279,0.03331056,-0.34877477,-0.00760678,-0.00714474,0.7136
 8015,0.00003809,0.00055154,-0.00007592,-0.00478629,-0.00103888,0.00073
 228,0.00108538,-0.00013668,-0.00013526,-0.00040862,-0.00004644,0.00003
 871,-0.00001114,0.00000088,-0.00003665,0.00000957,-0.00000848,0.000004
 91,-0.00000006,-0.00000047,0.00000286,0.00000179,-0.00000085,0.0000011
 6,0.00007593,-0.00001007,-0.00000962,-0.00000198,0.00000591,0.00001445
 ,0.00000035,-0.00000977,-0.00000766,-0.00002579,-0.00000143,-0.0000243
 1,0.00000934,-0.00000602,-0.00002276,0.00005405,-0.00007022,0.00001675
 ,0.00106920,0.01171811,-0.00132083,0.11254496,-0.21883432,0.06198277,-
 0.00177032,-0.03912242,0.01957569,0.01923248,-0.00889775,0.00190190,-0
 .03428187,0.01324254,-0.00297055,-0.07322086,-0.12950381,0.02431221,0.
 04354555,0.64189344,-0.00014472,-0.00015285,0.00009335,0.00219020,0.00
 055800,0.00156378,-0.00043883,0.00011657,-0.00044957,0.00018954,-0.000
 10830,-0.00010268,0.00000996,-0.00000243,0.00002390,-0.00000669,0.0000
 0911,-0.00000218,-0.00000040,-0.00000023,-0.00000392,-0.00000057,0.000
 00062,-0.00000112,-0.00004605,0.00004265,0.00005407,-0.00000334,-0.000
 00632,-0.00000436,-0.00000199,0.00000845,0.00000046,0.00000667,0.00000
 997,0.00000353,-0.00000132,0.00001040,0.00002367,-0.00003939,0.0000161
 6,-0.00002124,-0.00286910,-0.00038505,0.00762898,-0.04912879,0.0595643
 1,-0.09737475,0.00271357,0.02114488,0.00111886,-0.00982344,0.00193956,
 -0.00694319,0.01322559,-0.00464702,0.01107446,0.01901907,0.02671525,-0
 .07199536,0.00275052,-0.20163562,0.21337833,-0.00418959,0.00257336,-0.
 00149976,0.01959571,0.02457674,-0.00819665,-0.00760984,0.00607220,-0.0
 0212543,0.00000937,-0.00057640,0.00055220,-0.00002326,0.00001848,-0.00
 001292,0.00000682,-0.00001326,-0.00000525,0.00000652,-0.00000285,0.000
 00639,-0.00000369,0.00000420,0.00000516,0.00001429,-0.00005983,-0.0001
 2325,0.00004847,0.00001279,-0.00004006,-0.00003862,0.00004846,0.000041
 18,0.00006838,-0.00014214,0.00010525,0.00033515,-0.00009557,0.00005965
 ,-0.00155220,-0.00171707,0.00082191,-0.08310414,-0.06096071,0.01999420
 ,-0.00694205,-0.03301989,0.01164428,-0.00542629,0.00091227,-0.00068988
 ,0.00056151,-0.00130445,0.00060218,0.00009594,0.00047237,-0.00021103,-
 0.00034749,0.00023482,-0.00004948,0.00091513,-0.00277098,0.00123612,0.
 08920630,-0.00190127,0.00049029,-0.00059727,0.00028902,-0.01947971,0.0
 0514741,0.00217466,0.00201326,0.00155149,0.00103803,-0.00129783,-0.000
 30118,0.00005902,-0.00002100,0.00016911,-0.00004940,0.00006086,-0.0000
 1573,0.00000588,0.00000674,-0.00001904,-0.00000768,-0.00000083,-0.0000
 0580,-0.00041975,0.00038183,0.00039884,0.00000352,-0.00003653,-0.00004
 687,-0.00001246,0.00004318,0.00001644,-0.00039976,-0.00000552,0.000030
 20,0.00001060,-0.00002276,0.00004373,-0.00217436,-0.00026828,0.0002324
 0,-0.06249245,-0.39074855,0.13283481,-0.00425379,-0.00425498,0.0004572
 8,0.00101752,0.00193062,-0.00003312,0.00012145,-0.00006444,0.00042206,
 0.00035757,0.00037979,-0.00009288,-0.00033664,-0.00065602,0.00004741,0
 .00304708,0.00219596,-0.00093033,0.06372912,0.40982771,0.00066429,-0.0
 0050721,-0.00045347,0.00030745,0.00492869,-0.00684060,-0.00078687,0.00
 162625,0.00596777,-0.00012350,0.00041256,-0.00023312,-0.00005328,-0.00
 001625,-0.00013033,0.00003961,-0.00004379,0.00001176,0.00000588,-0.000
 00186,0.00000936,0.00000467,-0.00000027,0.00000402,0.00030801,-0.00033
 870,-0.00033025,0.00004819,-0.00000548,-0.00002149,-0.00000310,-0.0000
 2495,-0.00000046,-0.00021793,0.00001591,0.00003993,0.00003182,-0.00000
 327,-0.00013198,0.00094737,0.00027548,-0.00016552,0.01969874,0.1338554
 2,-0.05711425,0.00211765,-0.00024971,-0.00274466,-0.00049559,-0.000045
 51,0.00191069,0.00000986,0.00048759,0.00087632,-0.00023353,-0.00010825
 ,0.00013013,0.00022595,-0.00005096,-0.00068412,-0.00111279,-0.00102245
 ,-0.00022005,-0.02139486,-0.13918526,0.06022111,0.00072753,0.00025676,
 0.00007384,-0.00020616,-0.00580614,0.00194972,-0.00587952,0.00374323,-
 0.00120340,-0.00064728,0.00053115,0.00023930,-0.00005446,0.00002125,-0
 .00010722,0.00003448,-0.00004272,0.00000652,-0.00000014,-0.00000188,0.
 00001274,0.00000562,-0.00000150,0.00000621,0.00022539,-0.00024937,-0.0
 0028142,-0.00000703,0.00002714,0.00005827,0.00000075,-0.00001969,0.000
 01139,0.00012837,0.00003568,-0.00003756,-0.00002357,0.00002301,-0.0000
 5974,0.00018427,0.00029572,-0.00014360,-0.00134559,0.00220654,-0.00067
 779,0.01261567,-0.00936345,0.00412946,-0.17776704,0.13695311,-0.060564
 83,-0.01347619,0.02054549,-0.00882443,-0.00404515,-0.00208363,0.000443
 80,-0.00029891,-0.00085660,0.00035763,-0.00038601,-0.00262183,0.000879
 13,-0.00006118,0.00011840,-0.00006154,0.18926112,0.00055720,0.00021441
 ,0.00021401,-0.00120803,-0.00333185,0.00106940,0.00403096,0.00180809,-
 0.00074741,-0.00035899,0.00032200,0.00018261,-0.00003495,0.00001618,-0
 .00006554,0.00002137,-0.00002667,0.00000343,-0.00000005,-0.00000051,0.
 00000812,0.00000343,-0.00000169,0.00000472,0.00013001,-0.00015136,-0.0
 0019046,-0.00000936,0.00002042,0.00004202,0.00000154,-0.00001542,0.000
 00620,0.00007801,0.00002378,-0.00002420,-0.00001825,0.00002112,-0.0000
 5625,0.00006783,0.00019015,-0.00007270,-0.00018625,0.00108645,-0.00192
 855,0.02025169,-0.01391579,0.00817931,0.13201477,-0.20510226,0.0722829
 7,-0.00634544,0.00931360,-0.00290667,-0.00222529,0.00193093,0.00221787
 ,-0.00106419,-0.00037347,-0.00022618,-0.00292977,-0.00278320,0.0035534
 5,0.00006828,-0.00007021,-0.00012131,-0.14391009,0.21131752,-0.0001014
 3,0.00006639,0.00040806,0.00040958,0.00136843,-0.00065800,-0.00156006,
 -0.00070408,0.00012311,0.00010086,-0.00005250,-0.00001905,0.00001207,-
 0.00000557,0.00001804,-0.00000603,0.00000754,-0.00000181,0.00000197,0.
 00000103,-0.00000274,-0.00000194,-0.00000025,-0.00000011,-0.00005285,0
 .00003124,0.00001580,0.00000821,-0.00000134,-0.00001730,-0.00000039,0.
 00000011,-0.00000164,-0.00003231,-0.00002462,0.00001035,0.00004981,-0.
 00000893,-0.00000310,-0.00004474,-0.00009821,0.00010153,0.00036669,-0.
 00191590,-0.00314128,-0.00776975,0.00707264,0.00157488,-0.05856299,0.0
 7197225,-0.06842302,0.00194997,-0.00169750,0.00350053,0.00040235,0.002
 21024,0.00684709,0.00044497,-0.00026868,-0.00075028,0.00095348,0.00357
 849,0.00500706,-0.00004005,-0.00008962,-0.00028700,0.06368509,-0.07957
 875,0.06019825,-0.00025678,0.00006255,-0.00005160,0.00066908,-0.000391
 56,0.00013875,-0.00010773,0.00020975,-0.00007353,0.00016503,-0.0001536
 6,-0.00006757,0.00001448,-0.00000541,0.00003075,-0.00000968,0.00001179
 ,-0.00000209,0.00000021,0.00000085,-0.00000390,-0.00000128,0.00000021,
 -0.00000158,-0.00006858,0.00006822,0.00007798,-0.00000027,-0.00000696,
 -0.00001034,0.00000013,0.00000542,-0.00000104,-0.00004054,-0.00000253,
 0.00000435,0.00000126,0.00000312,0.00001269,-0.00007772,-0.00001546,0.
 00001571,-0.00050487,-0.00149534,0.00056897,-0.00509900,-0.00034105,-0
 .00037136,-0.00600286,-0.02816870,0.01101565,-0.09000936,-0.08059668,0
 .03043506,0.01116511,0.01911890,-0.00739312,-0.00205769,0.00319440,-0.
 00160870,-0.00119813,0.00048491,-0.00020280,-0.00039053,0.00001673,0.0
 0000226,0.00116933,0.00050296,-0.00000218,0.09130102,-0.00027861,0.000
 05007,-0.00005724,0.00056521,-0.00030049,0.00012622,-0.00016954,0.0001
 3473,-0.00001562,0.00018153,-0.00015635,-0.00006714,0.00001439,-0.0000
 0497,0.00003170,-0.00000983,0.00001201,-0.00000230,0.00000027,0.000000
 87,-0.00000370,-0.00000143,0.00000012,-0.00000155,-0.00007118,0.000070
 01,0.00007936,-0.00000025,-0.00000659,-0.00001086,-0.00000004,0.000006
 18,-0.00000043,-0.00003727,-0.00000423,0.00000679,0.00000058,0.0000029
 9,0.00001380,-0.00002718,-0.00001677,0.00001208,-0.00059247,-0.0001275
 4,0.00008721,-0.00012450,0.00279711,0.00201121,0.00056196,-0.00111079,
 0.00189254,-0.08094869,-0.27580739,0.09182635,-0.00998510,-0.01418204,
 0.00691864,0.00378073,-0.00055449,0.00334942,0.00040259,0.00031596,-0.
 00054716,-0.00003769,0.00003721,-0.00007613,-0.00008914,0.00005208,-0.
 00182211,0.08717021,0.28961251,0.00010272,-0.00001669,0.00001442,-0.00
 020885,0.00011050,-0.00003080,0.00008643,-0.00001205,0.00007352,-0.000
 06820,0.00006166,0.00003075,-0.00000559,0.00000166,-0.00001198,0.00000
 389,-0.00000469,0.00000080,-0.00000006,-0.00000023,0.00000162,0.000000
 37,-0.00000007,0.00000056,0.00002731,-0.00002693,-0.00003153,0.0000007
 4,0.00000231,0.00000309,0.00000007,-0.00000199,0.00000045,0.00001390,0
 .00000144,-0.00000334,-0.00000236,-0.00000043,-0.00000395,0.00001331,0
 .00000741,-0.00000817,0.00024518,0.00007091,0.00006875,-0.00045266,0.0
 0195703,0.00705616,-0.00049560,0.00087655,0.00324734,0.03047616,0.0918
 8948,-0.07487390,0.00429904,0.00787067,0.00099884,-0.00181792,0.003354
 33,0.00605361,-0.00018859,-0.00055136,-0.00088588,0.00001470,-0.000078
 26,-0.00012465,0.00021859,-0.00179485,-0.00377644,-0.03261009,-0.10202
 599,0.06659136,-0.00022901,0.00002841,-0.00004405,0.00040813,-0.000040
 74,0.00002618,-0.00035532,-0.00001200,0.00001678,0.00014672,-0.0001309
 1,-0.00005800,0.00001250,-0.00000458,0.00002595,-0.00000818,0.00001013
 ,-0.00000176,0.00000026,0.00000061,-0.00000307,-0.00000123,0.00000014,
 -0.00000137,-0.00005791,0.00005832,0.00006718,0.00000046,-0.00000566,-
 0.00001015,0.,0.00000502,-0.00000096,-0.00003233,-0.00000456,0.0000059
 7,0.00000341,0.00000076,0.00001219,-0.00002909,-0.00002515,0.00001554,
 -0.00037531,0.00003833,0.00001915,0.00077502,0.00045928,-0.00013504,-0
 .00050950,0.00333785,-0.00161858,-0.01483054,-0.00663750,0.00203975,-0
 .33409998,-0.05088649,0.00962007,-0.00575937,0.00105415,-0.00069672,0.
 00135645,-0.00179089,0.00050399,0.00002457,0.00001529,-0.00000313,-0.0
 0061938,-0.00041277,0.00011962,0.00086608,0.00025023,0.00007912,0.3530
 6137,0.00000281,0.00003519,0.00003035,0.00005582,-0.00025985,0.0000418
 9,0.00018021,0.00016774,-0.00009099,-0.00000088,0.00000295,0.00000618,
 -0.00000037,-0.00000002,0.00000028,0.00000007,-0.00000004,-0.00000012,
 0.00000023,0.00000018,-0.00000001,-0.00000004,-0.00000010,0.00000008,-
 0.00000222,-0.00000093,-0.00000377,0.00000043,-0.00000014,-0.00000007,
 -0.00000008,-0.00000019,0.00000049,-0.00000014,-0.00000018,-0.00000072
 ,0.00000032,0.00000236,-0.00000245,0.00000029,0.00000909,0.00000061,-0
 .00024697,0.00021679,-0.00049962,0.00039106,-0.00131139,0.00030527,0.0
 0254273,-0.00184305,0.00370340,0.02290924,0.00814961,-0.00147534,-0.05
 090201,-0.06589848,0.01042035,-0.02835601,-0.00034946,0.00000698,-0.00
 110547,-0.00338374,0.00418415,0.00013505,-0.00001743,0.00001349,0.0008
 6555,0.00035572,0.00004057,-0.00055713,0.00023856,-0.00179873,0.054856
 53,0.06361554,0.00001212,0.00002205,0.00009600,0.00000569,0.00006291,-
 0.00013519,-0.00012333,-0.00007778,-0.00002885,0.00000014,0.00000974,0
 .00001051,-0.00000019,-0.00000050,0.00000039,0.00000012,0.,-0.00000017
 ,0.00000057,0.00000029,-0.00000005,-0.00000018,-0.00000009,0.00000013,
 -0.00000234,-0.00000156,-0.00000828,0.00000245,-0.00000050,-0.00000273
 ,-0.00000037,-0.00000044,0.00000029,0.00000189,-0.00000348,0.00000091,
 0.00000486,0.00000124,-0.00000366,-0.00000362,-0.00000631,0.00001321,0
 .00013929,-0.00045482,-0.00085881,-0.00011180,0.00028091,-0.00070682,-
 0.00133997,0.00371517,0.00566842,-0.00970707,-0.00254448,0.00310365,0.
 00962699,0.01047669,-0.03899522,0.01096875,0.00101413,0.00220753,0.000
 28911,0.00416200,0.00556959,-0.00005946,-0.00000157,0.00000554,-0.0003
 7462,-0.00001617,0.00032109,0.00040038,-0.00177088,-0.00347924,-0.0101
 7998,-0.01325612,0.03032022,-0.00040919,0.00017491,-0.00009659,0.00042
 345,-0.00083322,0.00026634,-0.00006592,0.00029050,-0.00009933,0.000208
 73,-0.00022127,-0.00007874,0.00001876,-0.00000623,0.00004117,-0.000012
 79,0.00001578,-0.00000296,0.00000037,0.00000104,-0.00000475,-0.0000017
 6,0.,-0.00000213,-0.00009217,0.00009088,0.00010222,-0.00000064,-0.0000
 0869,-0.00001384,0.,0.00000769,-0.00000132,-0.00005826,-0.00000483,0.0
 0000514,0.00000286,0.00000537,0.00001595,-0.00003728,-0.00002369,0.000
 01781,-0.00162578,0.00153911,-0.00061338,-0.00386425,-0.00234154,0.000
 53115,-0.00064361,-0.00081374,0.00033543,0.00050303,-0.00256130,0.0007
 7432,0.01098824,-0.00892094,0.00380199,-0.17559908,0.12665429,-0.05530
 374,-0.01487399,0.02340799,-0.01001176,0.00009748,0.00009981,-0.000021
 41,0.00005905,0.00011812,-0.00000388,0.00035844,-0.00046012,0.00019888
 ,0.00070483,0.00061426,-0.00007601,0.18283100,0.00013692,-0.00000650,0
 .00001921,-0.00042498,0.00012656,-0.00011783,0.00011051,-0.00008187,0.
 00005169,-0.00010507,0.00008204,0.00004139,-0.00000777,0.00000246,-0.0
 0001717,0.00000535,-0.00000659,0.00000128,-0.00000016,-0.00000042,0.00
 000196,0.00000074,-0.00000005,0.00000081,0.00003931,-0.00003833,-0.000
 04444,0.00000037,0.00000321,0.00000561,0.00000016,-0.00000345,0.000000
 13,0.00001554,0.00000173,-0.00000461,-0.00000039,-0.00000179,-0.000007
 79,0.00001089,0.00000775,-0.00000616,0.00031135,0.00024330,-0.00000864
 ,-0.00235736,0.00197749,0.00230754,-0.00074607,-0.00022354,-0.00037492
 ,-0.00319340,-0.00289885,0.00399726,0.01998524,-0.01352975,0.00759466,
 0.12731573,-0.19823658,0.06804517,-0.00568091,0.00735964,-0.00175478,-
 0.00000182,-0.00002099,0.00000517,0.00009400,-0.00010386,-0.00036940,0
 .00095194,-0.00086315,0.00038741,-0.00019978,0.00043390,-0.00179086,-0
 .13665497,0.20569830,-0.00006403,0.00000583,-0.00003178,0.00018097,-0.
 00011374,-0.00009130,-0.00005093,0.00005953,0.00004240,0.00004991,-0.0
 0003317,-0.00001152,0.00000342,-0.00000130,0.00000786,-0.00000233,0.00
 000279,-0.00000066,0.00000011,0.00000023,-0.00000083,-0.00000045,0.000
 00003,-0.00000036,-0.00001820,0.00001491,0.00001677,0.00000035,-0.0000
 0170,-0.00000293,0.00000008,0.00000175,0.00000044,-0.00001167,-0.00000
 167,0.00000280,0.00000067,-0.00000024,0.00000298,-0.00000508,-0.000003
 65,0.00000449,-0.00017978,0.00004430,0.00017283,0.00052275,0.00233169,
 0.00707743,0.00030237,-0.00041064,-0.00092724,0.00100740,0.00402813,0.
 00581580,-0.00771836,0.00653046,0.00089397,-0.05556100,0.06802081,-0.0
 6782014,0.00165839,-0.00069604,0.00384709,0.00000665,-0.00000196,-0.00
 002081,-0.00000704,-0.00037309,-0.00090103,-0.00036445,0.00033115,-0.0
 0012943,0.00024352,-0.00175044,-0.00332458,0.05998085,-0.07615307,0.05
 914098,0.00023530,-0.00007421,0.00004818,-0.00041744,0.00042566,-0.000
 11080,-0.00001187,-0.00031166,0.00009527,-0.00015261,0.00013976,0.0000
 6132,-0.00001274,0.00000450,-0.00002777,0.00000867,-0.00001073,0.00000
 199,-0.00000019,-0.00000083,0.00000327,0.00000125,-0.00000004,0.000001
 36,0.00006399,-0.00006230,-0.00007097,0.00000153,0.00000531,0.00000842
 ,-0.00000041,-0.00000501,0.00000066,0.00003657,0.00000200,-0.00000404,
 0.00000123,-0.00000568,-0.00001093,0.00005179,-0.00000707,-0.00000191,
 0.00239313,0.00174682,-0.00047102,0.00825769,0.01759750,-0.00689473,-0
 .00213937,0.00283853,-0.00140274,-0.00124258,0.00044808,-0.00019141,-0
 .00547557,-0.00026473,-0.00035001,-0.00532557,-0.02903424,0.01130355,-
 0.08944015,-0.07986895,0.02999483,-0.00129674,-0.00005612,0.00009576,0
 .00040604,0.00085725,-0.00032610,0.00011485,-0.00009469,0.00006951,-0.
 00045265,-0.00138327,0.00052657,0.00108847,0.00039463,0.00002589,0.093
 30736,0.00004271,-0.00004390,0.00006472,0.00035773,-0.00002378,-0.0003
 5237,0.00001326,0.00036646,-0.00003717,0.00000205,0.00002000,0.0000094
 0,-0.00000019,-0.00000026,-0.00000059,0.00000031,-0.00000049,-0.000000
 08,0.00000012,0.00000032,-0.00000003,-0.00000012,0.,0.00000025,-0.0000
 0173,-0.00000270,-0.00000542,-0.00000012,0.00000014,0.00000107,0.00000
 072,-0.00000086,0.00000070,0.00001110,0.00000052,-0.00000190,-0.000000
 67,0.00000598,-0.00000023,-0.00000096,0.00001003,-0.00000449,-0.001684
 87,0.00096614,-0.00169331,-0.01111444,-0.01472248,0.00725655,0.0037950
 3,-0.00094940,0.00268340,0.00076303,0.00023978,-0.00041129,-0.00093905
 ,0.00276250,0.00191664,0.00039501,-0.00112201,0.00159634,-0.07933118,-
 0.27342944,0.09229656,0.00184450,-0.00040237,0.00018078,-0.00067098,-0
 .00079619,0.00028852,-0.00006747,-0.00019559,-0.00027907,0.00003595,-0
 .00016263,0.00018043,-0.00016921,0.00007935,-0.00183090,0.08671949,0.2
 8740087,-0.00005384,0.00004105,0.00008367,-0.00000502,-0.00032353,-0.0
 0069772,-0.00001474,-0.00006679,0.00022027,0.00002248,-0.00001078,0.00
 000544,0.00000373,-0.00000107,0.00000817,-0.00000222,0.00000275,-0.000
 00097,0.00000055,0.00000068,-0.00000079,-0.00000069,-0.00000009,-0.000
 00002,-0.00002182,0.00001611,0.00001271,0.00000077,-0.00000094,-0.0000
 0269,0.00000056,0.00000052,0.00000060,0.00001133,-0.00000476,-0.000001
 37,-0.00000188,0.00000566,0.00000581,0.00000458,-0.00000587,0.00000315
 ,0.00086058,-0.00140469,-0.00254551,0.00434845,0.00822412,0.00129888,-
 0.00176070,0.00264754,0.00435999,-0.00030135,-0.00042838,-0.00069943,-
 0.00008966,0.00195733,0.00684294,-0.00047164,0.00060979,0.00264278,0.0
 2993675,0.09218484,-0.07138282,-0.00064178,0.00004772,0.00032613,0.000
 27151,0.00033801,-0.00014297,0.00006179,-0.00028538,-0.00078198,-0.000
 04218,0.00012429,0.00022612,0.00025857,-0.00180961,-0.00376321,-0.0323
 7413,-0.10185850,0.06398286\\-0.00000386,0.00000216,0.00000341,-0.0000
 0574,-0.00000772,0.00000294,0.00000336,0.00000632,-0.00000459,0.000005
 54,0.00000025,0.00000012,-0.00000825,0.00000247,0.00000039,0.00000272,
 0.00000694,-0.00000516,0.00000413,0.00000451,-0.00000671,0.00000540,0.
 00000821,0.00000095,0.00000329,0.00000249,0.00000014,0.00000105,0.0000
 0375,-0.00000219,0.00000208,0.00000782,-0.00000007,-0.00000340,0.00000
 018,0.00000283,-0.00000009,-0.00000160,0.00000180,-0.00000058,0.000004
 23,0.00000470,0.00000096,-0.00000988,0.00000604,0.00000315,0.00000473,
 -0.00000203,-0.00000036,-0.00000933,0.00000007,-0.00000089,-0.00000370
 ,-0.00000312,-0.00000246,-0.00001454,0.00000268,-0.00000179,0.00000785
 ,-0.00000415,0.00000043,-0.00000293,0.00000360,-0.00000323,0.00000507,
 0.00000099,-0.00000088,-0.00000225,-0.00000343,0.00000074,-0.00000413,
 -0.00000613,-0.00000038,-0.00000442,-0.00000267,0.00000076,-0.00000489
 ,0.00000423,-0.00000169,-0.00000160,0.00000538\\\@


 We make a living by what we get,
 we make a life by what we give.
                   -- Sir Winston Churchill
 Job cpu time:       0 days 11 hours 48 minutes  1.1 seconds.
 Elapsed time:       0 days  0 hours 44 minutes 21.8 seconds.
 File lengths (MBytes):  RWF=    969 Int=      0 D2E=      0 Chk=     32 Scr=      1
 Normal termination of Gaussian 16 at Fri Feb 19 15:54:28 2021.
