 Entering Gaussian System, Link 0=g16
 Initial command:
 /apps/gaussian/16/A.03/g16/l1.exe "/beegfs/scratch/user/q/tla25/Gau-6211.inp" -scrdir="/beegfs/scratch/user/q/tla25/"
 Entering Link 1 = /apps/gaussian/16/A.03/g16/l1.exe PID=      6212.
  
 Copyright (c) 1988,1990,1992,1993,1995,1998,2003,2009,2016,
            Gaussian, Inc.  All Rights Reserved.
  
 This is part of the Gaussian(R) 16 program.  It is based on
 the Gaussian(R) 09 system (copyright 2009, Gaussian, Inc.),
 the Gaussian(R) 03 system (copyright 2003, Gaussian, Inc.),
 the Gaussian(R) 98 system (copyright 1998, Gaussian, Inc.),
 the Gaussian(R) 94 system (copyright 1995, Gaussian, Inc.),
 the Gaussian 92(TM) system (copyright 1992, Gaussian, Inc.),
 the Gaussian 90(TM) system (copyright 1990, Gaussian, Inc.),
 the Gaussian 88(TM) system (copyright 1988, Gaussian, Inc.),
 the Gaussian 86(TM) system (copyright 1986, Carnegie Mellon
 University), and the Gaussian 82(TM) system (copyright 1983,
 Carnegie Mellon University). Gaussian is a federally registered
 trademark of Gaussian, Inc.
  
 This software contains proprietary and confidential information,
 including trade secrets, belonging to Gaussian, Inc.
  
 This software is provided under written license and may be
 used, copied, transmitted, or stored only in accord with that
 written license.
  
 The following legend is applicable only to US Government
 contracts under FAR:
  
                    RESTRICTED RIGHTS LEGEND
  
 Use, reproduction and disclosure by the US Government is
 subject to restrictions as set forth in subparagraphs (a)
 and (c) of the Commercial Computer Software - Restricted
 Rights clause in FAR 52.227-19.
  
 Gaussian, Inc.
 340 Quinnipiac St., Bldg. 40, Wallingford CT 06492
  
  
 ---------------------------------------------------------------
 Warning -- This program may not be used in any manner that
 competes with the business of Gaussian, Inc. or will provide
 assistance to any competitor of Gaussian, Inc.  The licensee
 of this program is prohibited from giving any competitor of
 Gaussian, Inc. access to this program.  By using this program,
 the user acknowledges that Gaussian, Inc. is engaged in the
 business of creating and licensing software in the field of
 computational chemistry and represents and warrants to the
 licensee that it is not a competitor of Gaussian, Inc. and that
 it will not use this program in any manner prohibited above.
 ---------------------------------------------------------------
  

 Cite this work as:
 Gaussian 16, Revision A.03,
 M. J. Frisch, G. W. Trucks, H. B. Schlegel, G. E. Scuseria, 
 M. A. Robb, J. R. Cheeseman, G. Scalmani, V. Barone, 
 G. A. Petersson, H. Nakatsuji, X. Li, M. Caricato, A. V. Marenich, 
 J. Bloino, B. G. Janesko, R. Gomperts, B. Mennucci, H. P. Hratchian, 
 J. V. Ortiz, A. F. Izmaylov, J. L. Sonnenberg, D. Williams-Young, 
 F. Ding, F. Lipparini, F. Egidi, J. Goings, B. Peng, A. Petrone, 
 T. Henderson, D. Ranasinghe, V. G. Zakrzewski, J. Gao, N. Rega, 
 G. Zheng, W. Liang, M. Hada, M. Ehara, K. Toyota, R. Fukuda, 
 J. Hasegawa, M. Ishida, T. Nakajima, Y. Honda, O. Kitao, H. Nakai, 
 T. Vreven, K. Throssell, J. A. Montgomery, Jr., J. E. Peralta, 
 F. Ogliaro, M. J. Bearpark, J. J. Heyd, E. N. Brothers, K. N. Kudin, 
 V. N. Staroverov, T. A. Keith, R. Kobayashi, J. Normand, 
 K. Raghavachari, A. P. Rendell, J. C. Burant, S. S. Iyengar, 
 J. Tomasi, M. Cossi, J. M. Millam, M. Klene, C. Adamo, R. Cammi, 
 J. W. Ochterski, R. L. Martin, K. Morokuma, O. Farkas, 
 J. B. Foresman, and D. J. Fox, Gaussian, Inc., Wallingford CT, 2016.
 
 ******************************************
 Gaussian 16:  ES64L-G16RevA.03 25-Dec-2016
                28-Mar-2021 
 ******************************************
 %nprocshared=16
 Will use up to   16 processors via shared memory.
 %mem=48GB
 ----------------------------------------------------------------------
 # wB97XD def2tzvp, opt=(ts, noeigen, calcfc, maxcycles=70, maxstep=3),
  freq=noraman, scrf=(iefpcm, solvent=water)
 ----------------------------------------------------------------------
 1/5=1,6=70,8=3,10=4,11=1,18=20,26=3,38=1/1,3;
 2/9=110,12=2,17=6,18=5,40=1/2;
 3/5=44,7=101,11=2,25=1,30=1,70=2201,71=2,72=1,74=-58,140=1/1,2,3;
 4//1;
 5/5=2,38=5,53=1/2;
 8/6=4,10=90,11=11/1;
 11/6=1,8=1,9=11,15=111,16=1/1,2,10;
 10/6=1,13=1/2;
 6/7=2,8=2,9=2,10=2,28=1/1;
 7/10=1,18=20,25=1/1,2,3,16;
 1/5=1,6=70,8=3,10=4,11=1,18=20,26=3/3(2);
 2/9=110/2;
 99//99;
 2/9=110/2;
 3/5=44,7=101,11=2,25=1,30=1,70=2205,71=1,72=1,74=-58/1,2,3;
 4/5=5,16=3,69=1/1;
 5/5=2,38=5,53=1/2;
 7//1,2,3,16;
 1/5=1,6=70,8=3,11=1,18=20,26=3/3(-5);
 2/9=110/2;
 6/7=2,8=2,9=2,10=2,19=2,28=1/1;
 99/9=1/99;
 ------------------------
 0_iteration/TS-681-0.out
 ------------------------
 Symbolic Z-matrix:
 Charge =  0 Multiplicity = 1
 C                     0.09311   1.12371  -0.26832 
 C                     0.25262   2.51781  -0.49884 
 O                     1.32579   3.12642  -0.5135 
 C                    -1.18505   0.56057  -0.25511 
 C                    -2.8868   -0.41063   2.04699 
 H                    -3.49887   0.22584   2.68212 
 H                    -3.47024  -0.69193   1.16999 
 H                    -2.63247  -1.31762   2.58975 
 N                    -1.66811   0.29758   1.63042 
 H                    -1.65269   1.25613   1.95725 
 H                    -0.83446  -0.15394   1.98526 
 Br                   -1.29564  -1.32175  -0.7908 
 C                    -2.41582   1.29829  -0.70526 
 H                    -2.49784   2.26484  -0.2114 
 H                    -2.37073   1.45585  -1.78285 
 H                    -3.31492   0.72731  -0.48762 
 C                     1.32017   0.32417   0.00746 
 C                     2.02569  -0.28281  -1.03034 
 C                     3.17496  -1.01645  -0.78007 
 C                     3.64518  -1.15429   0.51926 
 C                     2.96367  -0.54416   1.56115 
 C                     1.81514   0.19253   1.30333 
 H                     1.66096  -0.18019  -2.04527 
 H                     3.70573  -1.48254  -1.60107 
 H                     4.54133  -1.72907   0.71657 
 H                     3.32759  -0.63579   2.57698 
 H                     1.30719   0.68884   2.1227 
 H                    -0.67014   3.08673  -0.7008 
 
 Add virtual bond connecting atoms N9         and C4         Dist= 3.71D+00.

 GradGradGradGradGradGradGradGradGradGradGradGradGradGradGradGradGradGrad
 Berny optimization.
 Initialization pass.
                           ----------------------------
                           !    Initial Parameters    !
                           ! (Angstroms and Degrees)  !
 --------------------------                            --------------------------
 ! Name  Definition              Value          Derivative Info.                !
 --------------------------------------------------------------------------------
 ! R1    R(1,2)                  1.422          calculate D2E/DX2 analytically  !
 ! R2    R(1,4)                  1.3968         calculate D2E/DX2 analytically  !
 ! R3    R(1,17)                 1.4903         calculate D2E/DX2 analytically  !
 ! R4    R(2,3)                  1.2338         calculate D2E/DX2 analytically  !
 ! R5    R(2,28)                 1.1027         calculate D2E/DX2 analytically  !
 ! R6    R(4,9)                  1.9641         calculate D2E/DX2 analytically  !
 ! R7    R(4,12)                 1.9602         calculate D2E/DX2 analytically  !
 ! R8    R(4,13)                 1.5039         calculate D2E/DX2 analytically  !
 ! R9    R(5,6)                  1.0877         calculate D2E/DX2 analytically  !
 ! R10   R(5,7)                  1.0903         calculate D2E/DX2 analytically  !
 ! R11   R(5,8)                  1.0872         calculate D2E/DX2 analytically  !
 ! R12   R(5,9)                  1.4698         calculate D2E/DX2 analytically  !
 ! R13   R(9,10)                 1.0129         calculate D2E/DX2 analytically  !
 ! R14   R(9,11)                 1.0123         calculate D2E/DX2 analytically  !
 ! R15   R(13,14)                1.0885         calculate D2E/DX2 analytically  !
 ! R16   R(13,15)                1.09           calculate D2E/DX2 analytically  !
 ! R17   R(13,16)                1.0871         calculate D2E/DX2 analytically  !
 ! R18   R(17,18)                1.394          calculate D2E/DX2 analytically  !
 ! R19   R(17,22)                1.3934         calculate D2E/DX2 analytically  !
 ! R20   R(18,19)                1.3862         calculate D2E/DX2 analytically  !
 ! R21   R(18,23)                1.0833         calculate D2E/DX2 analytically  !
 ! R22   R(19,20)                1.3887         calculate D2E/DX2 analytically  !
 ! R23   R(19,24)                1.0831         calculate D2E/DX2 analytically  !
 ! R24   R(20,21)                1.3865         calculate D2E/DX2 analytically  !
 ! R25   R(20,25)                1.0828         calculate D2E/DX2 analytically  !
 ! R26   R(21,22)                1.3886         calculate D2E/DX2 analytically  !
 ! R27   R(21,26)                1.0829         calculate D2E/DX2 analytically  !
 ! R28   R(22,27)                1.0843         calculate D2E/DX2 analytically  !
 ! A1    A(2,1,4)              119.9628         calculate D2E/DX2 analytically  !
 ! A2    A(2,1,17)             117.6201         calculate D2E/DX2 analytically  !
 ! A3    A(4,1,17)             122.3705         calculate D2E/DX2 analytically  !
 ! A4    A(1,2,3)              125.6679         calculate D2E/DX2 analytically  !
 ! A5    A(1,2,28)             116.2081         calculate D2E/DX2 analytically  !
 ! A6    A(3,2,28)             118.1115         calculate D2E/DX2 analytically  !
 ! A7    A(1,4,9)              106.7454         calculate D2E/DX2 analytically  !
 ! A8    A(1,4,12)             115.8615         calculate D2E/DX2 analytically  !
 ! A9    A(1,4,13)             123.2498         calculate D2E/DX2 analytically  !
 ! A10   A(9,4,12)              96.8862         calculate D2E/DX2 analytically  !
 ! A11   A(9,4,13)              98.7286         calculate D2E/DX2 analytically  !
 ! A12   A(12,4,13)            110.0649         calculate D2E/DX2 analytically  !
 ! A13   A(6,5,7)              108.6353         calculate D2E/DX2 analytically  !
 ! A14   A(6,5,8)              109.1656         calculate D2E/DX2 analytically  !
 ! A15   A(6,5,9)              110.4948         calculate D2E/DX2 analytically  !
 ! A16   A(7,5,8)              108.1515         calculate D2E/DX2 analytically  !
 ! A17   A(7,5,9)              109.8801         calculate D2E/DX2 analytically  !
 ! A18   A(8,5,9)              110.4577         calculate D2E/DX2 analytically  !
 ! A19   A(4,9,5)              122.7193         calculate D2E/DX2 analytically  !
 ! A20   A(4,9,10)             100.3295         calculate D2E/DX2 analytically  !
 ! A21   A(4,9,11)             101.1681         calculate D2E/DX2 analytically  !
 ! A22   A(5,9,10)             112.1589         calculate D2E/DX2 analytically  !
 ! A23   A(5,9,11)             111.627          calculate D2E/DX2 analytically  !
 ! A24   A(10,9,11)            107.2459         calculate D2E/DX2 analytically  !
 ! A25   A(4,13,14)            111.189          calculate D2E/DX2 analytically  !
 ! A26   A(4,13,15)            109.4496         calculate D2E/DX2 analytically  !
 ! A27   A(4,13,16)            111.0567         calculate D2E/DX2 analytically  !
 ! A28   A(14,13,15)           108.863          calculate D2E/DX2 analytically  !
 ! A29   A(14,13,16)           108.2543         calculate D2E/DX2 analytically  !
 ! A30   A(15,13,16)           107.9428         calculate D2E/DX2 analytically  !
 ! A31   A(1,17,18)            120.8342         calculate D2E/DX2 analytically  !
 ! A32   A(1,17,22)            121.0146         calculate D2E/DX2 analytically  !
 ! A33   A(18,17,22)           118.1282         calculate D2E/DX2 analytically  !
 ! A34   A(17,18,19)           121.0394         calculate D2E/DX2 analytically  !
 ! A35   A(17,18,23)           119.0665         calculate D2E/DX2 analytically  !
 ! A36   A(19,18,23)           119.8931         calculate D2E/DX2 analytically  !
 ! A37   A(18,19,20)           120.1447         calculate D2E/DX2 analytically  !
 ! A38   A(18,19,24)           119.8142         calculate D2E/DX2 analytically  !
 ! A39   A(20,19,24)           120.0411         calculate D2E/DX2 analytically  !
 ! A40   A(19,20,21)           119.5388         calculate D2E/DX2 analytically  !
 ! A41   A(19,20,25)           120.2286         calculate D2E/DX2 analytically  !
 ! A42   A(21,20,25)           120.2315         calculate D2E/DX2 analytically  !
 ! A43   A(20,21,22)           120.0328         calculate D2E/DX2 analytically  !
 ! A44   A(20,21,26)           120.1651         calculate D2E/DX2 analytically  !
 ! A45   A(22,21,26)           119.8013         calculate D2E/DX2 analytically  !
 ! A46   A(17,22,21)           121.1036         calculate D2E/DX2 analytically  !
 ! A47   A(17,22,27)           119.5458         calculate D2E/DX2 analytically  !
 ! A48   A(21,22,27)           119.3398         calculate D2E/DX2 analytically  !
 ! D1    D(4,1,2,3)            178.881          calculate D2E/DX2 analytically  !
 ! D2    D(4,1,2,28)            -2.4409         calculate D2E/DX2 analytically  !
 ! D3    D(17,1,2,3)             1.3037         calculate D2E/DX2 analytically  !
 ! D4    D(17,1,2,28)          179.9818         calculate D2E/DX2 analytically  !
 ! D5    D(2,1,4,9)           -101.8657         calculate D2E/DX2 analytically  !
 ! D6    D(2,1,4,12)           151.576          calculate D2E/DX2 analytically  !
 ! D7    D(2,1,4,13)            10.8873         calculate D2E/DX2 analytically  !
 ! D8    D(17,1,4,9)            75.5927         calculate D2E/DX2 analytically  !
 ! D9    D(17,1,4,12)          -30.9656         calculate D2E/DX2 analytically  !
 ! D10   D(17,1,4,13)         -171.6543         calculate D2E/DX2 analytically  !
 ! D11   D(2,1,17,18)          -90.8885         calculate D2E/DX2 analytically  !
 ! D12   D(2,1,17,22)           87.3324         calculate D2E/DX2 analytically  !
 ! D13   D(4,1,17,18)           91.5966         calculate D2E/DX2 analytically  !
 ! D14   D(4,1,17,22)          -90.1825         calculate D2E/DX2 analytically  !
 ! D15   D(1,4,9,5)           -173.18           calculate D2E/DX2 analytically  !
 ! D16   D(1,4,9,10)            61.8746         calculate D2E/DX2 analytically  !
 ! D17   D(1,4,9,11)           -48.1947         calculate D2E/DX2 analytically  !
 ! D18   D(12,4,9,5)           -53.4997         calculate D2E/DX2 analytically  !
 ! D19   D(12,4,9,10)         -178.4451         calculate D2E/DX2 analytically  !
 ! D20   D(12,4,9,11)           71.4856         calculate D2E/DX2 analytically  !
 ! D21   D(13,4,9,5)            58.103          calculate D2E/DX2 analytically  !
 ! D22   D(13,4,9,10)          -66.8424         calculate D2E/DX2 analytically  !
 ! D23   D(13,4,9,11)         -176.9117         calculate D2E/DX2 analytically  !
 ! D24   D(1,4,13,14)          -51.7317         calculate D2E/DX2 analytically  !
 ! D25   D(1,4,13,15)           68.5748         calculate D2E/DX2 analytically  !
 ! D26   D(1,4,13,16)         -172.3444         calculate D2E/DX2 analytically  !
 ! D27   D(9,4,13,14)           64.9618         calculate D2E/DX2 analytically  !
 ! D28   D(9,4,13,15)         -174.7317         calculate D2E/DX2 analytically  !
 ! D29   D(9,4,13,16)          -55.6509         calculate D2E/DX2 analytically  !
 ! D30   D(12,4,13,14)         165.6357         calculate D2E/DX2 analytically  !
 ! D31   D(12,4,13,15)         -74.0578         calculate D2E/DX2 analytically  !
 ! D32   D(12,4,13,16)          45.0229         calculate D2E/DX2 analytically  !
 ! D33   D(6,5,9,4)           -123.185          calculate D2E/DX2 analytically  !
 ! D34   D(6,5,9,10)            -3.728          calculate D2E/DX2 analytically  !
 ! D35   D(6,5,9,11)           116.658          calculate D2E/DX2 analytically  !
 ! D36   D(7,5,9,4)             -3.3229         calculate D2E/DX2 analytically  !
 ! D37   D(7,5,9,10)           116.1341         calculate D2E/DX2 analytically  !
 ! D38   D(7,5,9,11)          -123.4798         calculate D2E/DX2 analytically  !
 ! D39   D(8,5,9,4)            115.9169         calculate D2E/DX2 analytically  !
 ! D40   D(8,5,9,10)          -124.6261         calculate D2E/DX2 analytically  !
 ! D41   D(8,5,9,11)            -4.24           calculate D2E/DX2 analytically  !
 ! D42   D(1,17,18,19)         179.3568         calculate D2E/DX2 analytically  !
 ! D43   D(1,17,18,23)          -1.0054         calculate D2E/DX2 analytically  !
 ! D44   D(22,17,18,19)          1.0858         calculate D2E/DX2 analytically  !
 ! D45   D(22,17,18,23)       -179.2764         calculate D2E/DX2 analytically  !
 ! D46   D(1,17,22,21)        -179.5383         calculate D2E/DX2 analytically  !
 ! D47   D(1,17,22,27)          -0.74           calculate D2E/DX2 analytically  !
 ! D48   D(18,17,22,21)         -1.2705         calculate D2E/DX2 analytically  !
 ! D49   D(18,17,22,27)        177.5278         calculate D2E/DX2 analytically  !
 ! D50   D(17,18,19,20)         -0.1971         calculate D2E/DX2 analytically  !
 ! D51   D(17,18,19,24)        179.7902         calculate D2E/DX2 analytically  !
 ! D52   D(23,18,19,20)       -179.8319         calculate D2E/DX2 analytically  !
 ! D53   D(23,18,19,24)          0.1553         calculate D2E/DX2 analytically  !
 ! D54   D(18,19,20,21)         -0.5361         calculate D2E/DX2 analytically  !
 ! D55   D(18,19,20,25)        179.8475         calculate D2E/DX2 analytically  !
 ! D56   D(24,19,20,21)        179.4766         calculate D2E/DX2 analytically  !
 ! D57   D(24,19,20,25)         -0.1397         calculate D2E/DX2 analytically  !
 ! D58   D(19,20,21,22)          0.3541         calculate D2E/DX2 analytically  !
 ! D59   D(19,20,21,26)       -179.3159         calculate D2E/DX2 analytically  !
 ! D60   D(25,20,21,22)        179.9704         calculate D2E/DX2 analytically  !
 ! D61   D(25,20,21,26)          0.3004         calculate D2E/DX2 analytically  !
 ! D62   D(20,21,22,17)          0.5659         calculate D2E/DX2 analytically  !
 ! D63   D(20,21,22,27)       -178.2348         calculate D2E/DX2 analytically  !
 ! D64   D(26,21,22,17)       -179.7629         calculate D2E/DX2 analytically  !
 ! D65   D(26,21,22,27)          1.4364         calculate D2E/DX2 analytically  !
 --------------------------------------------------------------------------------
 Trust Radius=3.00D-02 FncErr=1.00D-07 GrdErr=1.00D-06 EigMax=2.50D+02 EigMin=1.00D-04
 Number of steps in this run=     70 maximum allowed number of steps=    168.
 Search for a saddle point of order  1.
 GradGradGradGradGradGradGradGradGradGradGradGradGradGradGradGradGradGrad

                          Input orientation:                          
 ---------------------------------------------------------------------
 Center     Atomic      Atomic             Coordinates (Angstroms)
 Number     Number       Type             X           Y           Z
 ---------------------------------------------------------------------
      1          6           0        0.093110    1.123710   -0.268320
      2          6           0        0.252620    2.517810   -0.498840
      3          8           0        1.325790    3.126420   -0.513500
      4          6           0       -1.185050    0.560570   -0.255110
      5          6           0       -2.886800   -0.410630    2.046990
      6          1           0       -3.498870    0.225840    2.682120
      7          1           0       -3.470240   -0.691930    1.169990
      8          1           0       -2.632470   -1.317620    2.589750
      9          7           0       -1.668110    0.297580    1.630420
     10          1           0       -1.652690    1.256130    1.957250
     11          1           0       -0.834460   -0.153940    1.985260
     12         35           0       -1.295640   -1.321750   -0.790800
     13          6           0       -2.415820    1.298290   -0.705260
     14          1           0       -2.497840    2.264840   -0.211400
     15          1           0       -2.370730    1.455850   -1.782850
     16          1           0       -3.314920    0.727310   -0.487620
     17          6           0        1.320170    0.324170    0.007460
     18          6           0        2.025690   -0.282810   -1.030340
     19          6           0        3.174960   -1.016450   -0.780070
     20          6           0        3.645180   -1.154290    0.519260
     21          6           0        2.963670   -0.544160    1.561150
     22          6           0        1.815140    0.192530    1.303330
     23          1           0        1.660960   -0.180190   -2.045270
     24          1           0        3.705730   -1.482540   -1.601070
     25          1           0        4.541330   -1.729070    0.716570
     26          1           0        3.327590   -0.635790    2.576980
     27          1           0        1.307190    0.688840    2.122700
     28          1           0       -0.670140    3.086730   -0.700800
 ---------------------------------------------------------------------
                    Distance matrix (angstroms):
                    1          2          3          4          5
     1  C    0.000000
     2  C    1.422005   0.000000
     3  O    2.364415   1.233821   0.000000
     4  C    1.396780   2.440715   3.599260   0.000000
     5  C    4.073662   4.991289   6.067351   3.023053   0.000000
     6  H    4.734299   5.426353   6.473229   3.754081   1.087710
     7  H    4.250029   5.191061   6.357345   2.970145   1.090257
     8  H    4.642999   5.707334   6.711742   3.703492   1.087154
     9  N    2.718382   3.626620   4.643508   1.964112   1.469795
    10  H    2.831698   3.354761   4.298131   2.365804   2.075854
    11  H    2.751617   3.806671   4.655238   2.377540   2.069251
    12  Br   2.860400   4.150249   5.170591   1.960184   3.378607
    13  C    2.552670   2.941158   4.168750   1.503882   3.273700
    14  H    2.831685   2.776985   3.931123   2.151712   3.522748
    15  H    2.911121   3.107798   4.250449   2.131045   4.291591
    16  H    3.438007   3.991661   5.224231   2.149002   2.811128
    17  C    1.490300   2.491598   2.850269   2.530011   4.732675
    18  C    2.508752   3.357044   3.518499   3.408977   5.798177
    19  C    3.786816   4.594579   4.544652   4.666076   6.715968
    20  C    4.292641   5.101991   4.977011   5.183774   6.749352
    21  C    3.790629   4.579193   4.523271   4.661663   5.872127
    22  C    2.510491   3.331098   3.485405   3.400784   4.798445
    23  H    2.704785   3.413806   3.659553   3.442843   6.122239
    24  H    4.649708   5.398303   5.299947   5.468605   7.610439
    25  H    5.375409   6.156805   5.952189   6.243240   7.660641
    26  H    4.653325   5.372272   5.264266   5.460397   6.241012
    27  H    2.716630   3.365965   3.590500   3.446983   4.336372
    28  H    2.150125   1.102698   2.005092   2.616344   4.969453
                    6          7          8          9         10
     6  H    0.000000
     7  H    1.769084   0.000000
     8  H    1.772414   1.763254   0.000000
     9  N    2.112558   2.106846   2.111676   0.000000
    10  H    2.235020   2.778166   2.825635   1.012854   0.000000
    11  H    2.780095   2.810949   2.225399   1.012301   1.630516
    12  Br   4.394363   2.995039   3.635279   2.936540   3.784802
    13  C    3.714497   2.930758   4.212720   2.648753   2.770037
    14  H    3.678592   3.405332   4.549570   2.819728   2.536694
    15  H    4.766716   3.813285   5.184619   3.672285   3.813636
    16  H    3.214430   2.187701   3.757351   2.717121   3.003340
    17  C    5.512406   5.033087   4.998706   3.400665   3.675340
    18  C    6.675466   5.934145   5.989519   4.589189   4.982420
    19  C    7.620371   6.933017   6.721059   5.567088   5.996978
    20  C    7.590795   7.160058   6.612299   5.619044   5.995445
    21  C    6.604082   6.447483   5.742216   4.708154   4.970787
    22  C    5.490070   5.360531   4.869976   3.500151   3.685743
    23  H    7.009773   6.076923   6.419556   4.982135   5.391053
    24  H    8.553978   7.732941   7.600194   6.518398   6.991039
    25  H    8.504697   8.091137   7.425732   6.595421   6.986887
    26  H    6.881425   6.942137   5.998947   5.169543   5.363452
    27  H    4.860610   5.063400   4.445778   3.041025   3.018291
    28  H    5.256477   5.061491   5.837530   3.769601   3.373682
                   11         12         13         14         15
    11  H    0.000000
    12  Br   3.046798   0.000000
    13  C    3.442175   2.850742   0.000000
    14  H    3.666421   3.826829   1.088505   0.000000
    15  H    4.376094   3.139274   1.089981   1.772026   0.000000
    16  H    3.611706   2.892759   1.087091   1.762928   1.760649
    17  C    2.963564   3.191980   3.926131   4.288508   4.255426
    18  C    4.158234   3.488267   4.725734   5.255807   4.787245
    19  C    4.946354   4.481025   6.051482   6.578063   6.154065
    20  C    4.818405   5.114294   6.652091   7.068310   6.950087
    21  C    3.841605   4.927275   6.121287   6.392222   6.605922
    22  C    2.757798   4.044178   4.812293   5.019031   5.351821
    23  H    4.740568   3.408568   4.538906   5.161092   4.358901
    24  H    5.936351   5.069131   6.782984   7.379588   6.752077
    25  H    5.743668   6.042209   7.719355   8.146310   8.010455
    26  H    4.231427   5.760793   6.892062   7.079855   7.473548
    27  H    2.305609   4.393823   4.714827   4.733926   5.419292
    28  H    4.212346   4.453543   2.499187   2.062887   2.592799
                   16         17         18         19         20
    16  H    0.000000
    17  C    4.678855   0.000000
    18  C    5.462326   1.393991   0.000000
    19  C    6.726423   2.420271   1.386248   0.000000
    20  C    7.279919   2.802402   2.404888   1.388656   0.000000
    21  C    6.725681   2.422611   2.768381   2.397710   1.386452
    22  C    5.459946   1.393414   2.390877   2.766098   2.403692
    23  H    5.292373   2.141079   1.083347   2.142955   3.385678
    24  H    7.443973   3.397421   2.141873   1.083050   2.146442
    25  H    8.318927   3.885165   3.387006   2.148191   1.082769
    26  H    7.441287   3.399072   3.851272   3.382009   2.145674
    27  H    5.308404   2.146484   3.376686   3.850020   3.381471
    28  H    3.550658   3.477744   4.327805   5.623803   6.172259
                   21         22         23         24         25
    21  C    0.000000
    22  C    1.388634   0.000000
    23  H    3.851726   3.372805   0.000000
    24  H    3.380953   3.849121   2.464653   0.000000
    25  H    2.146238   3.386583   4.280575   2.475976   0.000000
    26  H    1.082933   2.143782   4.934615   4.279729   2.475793
    27  H    2.139989   1.084299   4.272276   4.932986   4.275880
    28  H    5.612874   4.309240   4.232540   6.390380   7.236041
                   26         27         28
    26  H    0.000000
    27  H    2.458258   0.000000
    28  H    6.370466   4.199031   0.000000
 Stoichiometry    C11H14BrNO
 Framework group  C1[X(C11H14BrNO)]
 Deg. of freedom    78
 Full point group                 C1      NOp   1
 Largest Abelian subgroup         C1      NOp   1
 Largest concise Abelian subgroup C1      NOp   1
                         Standard orientation:                         
 ---------------------------------------------------------------------
 Center     Atomic      Atomic             Coordinates (Angstroms)
 Number     Number       Type             X           Y           Z
 ---------------------------------------------------------------------
      1          6           0        0.093114    1.123709   -0.268320
      2          6           0        0.252626    2.517809   -0.498840
      3          8           0        1.325797    3.126417   -0.513500
      4          6           0       -1.185047    0.560572   -0.255110
      5          6           0       -2.886799   -0.410625    2.046990
      6          1           0       -3.498868    0.225846    2.682120
      7          1           0       -3.470240   -0.691924    1.169990
      8          1           0       -2.632471   -1.317616    2.589750
      9          7           0       -1.668108    0.297583    1.630420
     10          1           0       -1.652686    1.256133    1.957250
     11          1           0       -0.834459   -0.153939    1.985260
     12         35           0       -1.295641   -1.321748   -0.790800
     13          6           0       -2.415816    1.298294   -0.705260
     14          1           0       -2.497834    2.264844   -0.211400
     15          1           0       -2.370726    1.455854   -1.782850
     16          1           0       -3.314917    0.727316   -0.487620
     17          6           0        1.320172    0.324167    0.007460
     18          6           0        2.025691   -0.282814   -1.030340
     19          6           0        3.174960   -1.016456   -0.780070
     20          6           0        3.645179   -1.154297    0.519260
     21          6           0        2.963670   -0.544166    1.561150
     22          6           0        1.815142    0.192526    1.303330
     23          1           0        1.660961   -0.180194   -2.045270
     24          1           0        3.705729   -1.482547   -1.601070
     25          1           0        4.541328   -1.729079    0.716570
     26          1           0        3.327590   -0.635797    2.576980
     27          1           0        1.307193    0.688837    2.122700
     28          1           0       -0.670133    3.086731   -0.700800
 ---------------------------------------------------------------------
 Rotational constants (GHZ):           0.6834790           0.4001197           0.3445605
 Standard basis: def2TZVP (5D, 7F)
 There are   607 symmetry adapted cartesian basis functions of A   symmetry.
 There are   535 symmetry adapted basis functions of A   symmetry.
   535 basis functions,   889 primitive gaussians,   607 cartesian basis functions
    65 alpha electrons       65 beta electrons
       nuclear repulsion energy      1249.3928529146 Hartrees.
 NAtoms=   28 NActive=   28 NUniq=   28 SFac= 1.00D+00 NAtFMM=   60 NAOKFM=F Big=F
 Integral buffers will be    131072 words long.
 Raffenetti 2 integral format.
 Two-electron integral symmetry is turned on.
 Nuclear repulsion after empirical dispersion term =     1249.3710091321 Hartrees.
 Force inversion solution in PCM.
 ------------------------------------------------------------------------------
 Polarizable Continuum Model (PCM)
 =================================
 Model                : PCM.
 Atomic radii         : UFF (Universal Force Field).
 Polarization charges : Total charges.
 Charge compensation  : None.
 Solution method      : Matrix inversion.
 Cavity type          : Scaled VdW (van der Waals Surface) (Alpha=1.100).
 Cavity algorithm     : GePol (No added spheres)
                        Default sphere list used, NSphG=   28.
                        Lebedev-Laikov grids with approx.  5.0 points / Ang**2.
                        Smoothing algorithm: York/Karplus (Gamma=1.0000).
                        Polarization charges: spherical gaussians, with
                                              point-specific exponents (IZeta= 3).
                        Self-potential: point-specific (ISelfS= 7).
                        Self-field    : sphere-specific E.n sum rule (ISelfD= 2).
 1st derivatives      : Analytical E(r).r(x)/FMM algorithm (CHGder, D1EAlg=3).
                        Cavity 1st derivative terms included.
 2nd derivatives      : Analytical E(r).r(xy)/FMM algorithm (CHGder, D2EAlg=3).
                        Cavity 2nd derivative terms included.
 Solvent              : Water, Eps=  78.355300 Eps(inf)=   1.777849
 ------------------------------------------------------------------------------
 One-electron integrals computed using PRISM.
   1 Symmetry operations used in ECPInt.
 ECPInt:  NShTT=   23220 NPrTT=   73930 LenC2=   21748 LenP2D=   50917.
 LDataN:  DoStor=T MaxTD1= 6 Len=  172
 NBasis=   535 RedAO= T EigKep=  7.41D-06  NBF=   535
 NBsUse=   535 1.00D-06 EigRej= -1.00D+00 NBFU=   535
 ExpMin= 9.52D-02 ExpMax= 5.65D+05 ExpMxC= 5.46D+03 IAcc=3 IRadAn=         5 AccDes= 0.00D+00
 Harris functional with IExCor= 4639 and IRadAn=       5 diagonalized for initial guess.
 HarFok:  IExCor= 4639 AccDes= 0.00D+00 IRadAn=         5 IDoV= 1 UseB2=F ITyADJ=14
 ICtDFT=  3500011 ScaDFX=  1.000000  1.000000  1.000000  1.000000
 FoFCou: FMM=F IPFlag=           0 FMFlag=      100000 FMFlg1=           0
         NFxFlg=           0 DoJE=T BraDBF=F KetDBF=T FulRan=T
         wScrn=  0.000000 ICntrl=       500 IOpCl=  0 I1Cent=   200000004 NGrid=           0
         NMat0=    1 NMatS0=      1 NMatT0=    0 NMatD0=    1 NMtDS0=    0 NMtDT0=    0
 Petite list used in FoFCou.
 Requested convergence on RMS density matrix=1.00D-08 within 128 cycles.
 Requested convergence on MAX density matrix=1.00D-06.
 Requested convergence on             energy=1.00D-06.
 No special actions if energy rises.
 Inv3:  Mode=1 IEnd=    13906227.
 Iteration    1 A*A^-1 deviation from unit magnitude is 5.22D-15 for   2145.
 Iteration    1 A*A^-1 deviation from orthogonality  is 2.64D-15 for   1634   1464.
 Iteration    1 A^-1*A deviation from unit magnitude is 5.44D-15 for   2145.
 Iteration    1 A^-1*A deviation from orthogonality  is 2.42D-15 for   2140   2035.
 Error on total polarization charges =  0.01536
 SCF Done:  E(RwB97XD) =  -3131.76632576     A.U. after   15 cycles
            NFock= 15  Conv=0.46D-08     -V/T= 2.0020
 DoSCS=F DFT=T ScalE2(SS,OS)=  1.000000  1.000000
 Range of M.O.s used for correlation:     1   535
 NBasis=   535 NAE=    65 NBE=    65 NFC=     0 NFV=     0
 NROrb=    535 NOA=    65 NOB=    65 NVA=   470 NVB=   470

 **** Warning!!: The largest alpha MO coefficient is  0.55491732D+02

   1 Symmetry operations used in ECPInt.
 ECPInt:  NShTT=   23220 NPrTT=   73930 LenC2=   21748 LenP2D=   50917.
 LDataN:  DoStor=T MaxTD1= 7 Len=  274
 Symmetrizing basis deriv contribution to polar:
 IMax=3 JMax=2 DiffMx= 0.00D+00
 G2DrvN: will do    29 centers at a time, making    1 passes.
 Calling FoFCou, ICntrl=  3107 FMM=F I1Cent=   0 AccDes= 0.00D+00.
 NEqPCM:  Using equilibrium solvation (IEInf=0, Eps=  78.3553, EpsInf=   1.7778)
 G2PCM: DoFxE=T DoFxN=T DoGrad=T DoDP/DQ/DG/TGxP=FFFF NFrqRd=   0 IEInf=0 SqF1=F DoCFld=F IF1Alg=4.
 End of G2Drv F.D. properties file   721 does not exist.
 End of G2Drv F.D. properties file   722 does not exist.
 End of G2Drv F.D. properties file   788 does not exist.
          IDoAtm=1111111111111111111111111111
 NEqPCM:  Using equilibrium solvation (IEInf=0, Eps=  78.3553, EpsInf=   1.7778)
          Differentiating once with respect to nuclear coordinates.
 CalDSu exits because no D1Ps are significant.
          There are    87 degrees of freedom in the 1st order CPHF.  IDoFFX=6 NUNeed=     0.
     81 vectors produced by pass  0 Test12= 3.51D-14 1.15D-09 XBig12= 1.17D-01 1.04D-01.
 AX will form    81 AO Fock derivatives at one time.
     81 vectors produced by pass  1 Test12= 3.51D-14 1.15D-09 XBig12= 3.07D-02 3.35D-02.
     81 vectors produced by pass  2 Test12= 3.51D-14 1.15D-09 XBig12= 8.85D-04 4.47D-03.
     81 vectors produced by pass  3 Test12= 3.51D-14 1.15D-09 XBig12= 1.20D-05 4.80D-04.
     81 vectors produced by pass  4 Test12= 3.51D-14 1.15D-09 XBig12= 1.31D-07 4.39D-05.
     81 vectors produced by pass  5 Test12= 3.51D-14 1.15D-09 XBig12= 1.07D-09 4.73D-06.
     81 vectors produced by pass  6 Test12= 3.51D-14 1.15D-09 XBig12= 7.90D-12 3.36D-07.
     38 vectors produced by pass  7 Test12= 3.51D-14 1.15D-09 XBig12= 5.85D-14 2.67D-08.
      9 vectors produced by pass  8 Test12= 3.51D-14 1.15D-09 XBig12= 8.08D-15 1.05D-08.
      4 vectors produced by pass  9 Test12= 3.51D-14 1.15D-09 XBig12= 2.44D-15 5.23D-09.
      3 vectors produced by pass 10 Test12= 3.51D-14 1.15D-09 XBig12= 7.94D-16 2.66D-09.
 InvSVY:  IOpt=1 It=  1 EMax= 4.16D-16
 Solved reduced A of dimension   621 with    87 vectors.
 End of Minotr F.D. properties file   721 does not exist.
 End of Minotr F.D. properties file   722 does not exist.
 End of Minotr F.D. properties file   788 does not exist.

 **********************************************************************

            Population analysis using the SCF density.

 **********************************************************************

 Orbital symmetries:
       Occupied  (A) (A) (A) (A) (A) (A) (A) (A) (A) (A) (A) (A)
                 (A) (A) (A) (A) (A) (A) (A) (A) (A) (A) (A) (A)
                 (A) (A) (A) (A) (A) (A) (A) (A) (A) (A) (A) (A)
                 (A) (A) (A) (A) (A) (A) (A) (A) (A) (A) (A) (A)
                 (A) (A) (A) (A) (A) (A) (A) (A) (A) (A) (A) (A)
                 (A) (A) (A) (A) (A)
       Virtual   (A) (A) (A) (A) (A) (A) (A) (A) (A) (A) (A) (A)
                 (A) (A) (A) (A) (A) (A) (A) (A) (A) (A) (A) (A)
                 (A) (A) (A) (A) (A) (A) (A) (A) (A) (A) (A) (A)
                 (A) (A) (A) (A) (A) (A) (A) (A) (A) (A) (A) (A)
                 (A) (A) (A) (A) (A) (A) (A) (A) (A) (A) (A) (A)
                 (A) (A) (A) (A) (A) (A) (A) (A) (A) (A) (A) (A)
                 (A) (A) (A) (A) (A) (A) (A) (A) (A) (A) (A) (A)
                 (A) (A) (A) (A) (A) (A) (A) (A) (A) (A) (A) (A)
                 (A) (A) (A) (A) (A) (A) (A) (A) (A) (A) (A) (A)
                 (A) (A) (A) (A) (A) (A) (A) (A) (A) (A) (A) (A)
                 (A) (A) (A) (A) (A) (A) (A) (A) (A) (A) (A) (A)
                 (A) (A) (A) (A) (A) (A) (A) (A) (A) (A) (A) (A)
                 (A) (A) (A) (A) (A) (A) (A) (A) (A) (A) (A) (A)
                 (A) (A) (A) (A) (A) (A) (A) (A) (A) (A) (A) (A)
                 (A) (A) (A) (A) (A) (A) (A) (A) (A) (A) (A) (A)
                 (A) (A) (A) (A) (A) (A) (A) (A) (A) (A) (A) (A)
                 (A) (A) (A) (A) (A) (A) (A) (A) (A) (A) (A) (A)
                 (A) (A) (A) (A) (A) (A) (A) (A) (A) (A) (A) (A)
                 (A) (A) (A) (A) (A) (A) (A) (A) (A) (A) (A) (A)
                 (A) (A) (A) (A) (A) (A) (A) (A) (A) (A) (A) (A)
                 (A) (A) (A) (A) (A) (A) (A) (A) (A) (A) (A) (A)
                 (A) (A) (A) (A) (A) (A) (A) (A) (A) (A) (A) (A)
                 (A) (A) (A) (A) (A) (A) (A) (A) (A) (A) (A) (A)
                 (A) (A) (A) (A) (A) (A) (A) (A) (A) (A) (A) (A)
                 (A) (A) (A) (A) (A) (A) (A) (A) (A) (A) (A) (A)
                 (A) (A) (A) (A) (A) (A) (A) (A) (A) (A) (A) (A)
                 (A) (A) (A) (A) (A) (A) (A) (A) (A) (A) (A) (A)
                 (A) (A) (A) (A) (A) (A) (A) (A) (A) (A) (A) (A)
                 (A) (A) (A) (A) (A) (A) (A) (A) (A) (A) (A) (A)
                 (A) (A) (A) (A) (A) (A) (A) (A) (A) (A) (A) (A)
                 (A) (A) (A) (A) (A) (A) (A) (A) (A) (A) (A) (A)
                 (A) (A) (A) (A) (A) (A) (A) (A) (A) (A) (A) (A)
                 (A) (A) (A) (A) (A) (A) (A) (A) (A) (A) (A) (A)
                 (A) (A) (A) (A) (A) (A) (A) (A) (A) (A) (A) (A)
                 (A) (A) (A) (A) (A) (A) (A) (A) (A) (A) (A) (A)
                 (A) (A) (A) (A) (A) (A) (A) (A) (A) (A) (A) (A)
                 (A) (A) (A) (A) (A) (A) (A) (A) (A) (A) (A) (A)
                 (A) (A) (A) (A) (A) (A) (A) (A) (A) (A) (A) (A)
                 (A) (A) (A) (A) (A) (A) (A) (A) (A) (A) (A) (A)
                 (A) (A)
 The electronic state is 1-A.
 Alpha  occ. eigenvalues -- -483.12989 -62.67836 -56.46944 -56.46608 -56.46588
 Alpha  occ. eigenvalues --  -19.20895 -14.48725 -10.40607 -10.34692 -10.32028
 Alpha  occ. eigenvalues --  -10.29866 -10.29572 -10.28897 -10.28834 -10.28806
 Alpha  occ. eigenvalues --  -10.28761 -10.28590 -10.27082  -8.81937  -6.64057
 Alpha  occ. eigenvalues --   -6.62992  -6.62929  -2.74448  -2.74154  -2.74106
 Alpha  occ. eigenvalues --   -2.73242  -2.73242  -1.11093  -1.04111  -0.96929
 Alpha  occ. eigenvalues --   -0.94364  -0.87310  -0.85000  -0.84831  -0.80697
 Alpha  occ. eigenvalues --   -0.79266  -0.70427  -0.70176  -0.69752  -0.63565
 Alpha  occ. eigenvalues --   -0.63160  -0.59189  -0.58818  -0.56216  -0.55747
 Alpha  occ. eigenvalues --   -0.54668  -0.54061  -0.52875  -0.50707  -0.50594
 Alpha  occ. eigenvalues --   -0.49380  -0.48605  -0.48052  -0.46393  -0.46219
 Alpha  occ. eigenvalues --   -0.45442  -0.43270  -0.42432  -0.42383  -0.37800
 Alpha  occ. eigenvalues --   -0.37296  -0.33566  -0.32873  -0.32324  -0.28485
 Alpha virt. eigenvalues --    0.02898   0.05045   0.05333   0.05781   0.09787
 Alpha virt. eigenvalues --    0.12972   0.13687   0.13897   0.14515   0.15616
 Alpha virt. eigenvalues --    0.15947   0.17158   0.18031   0.18410   0.18594
 Alpha virt. eigenvalues --    0.19100   0.19998   0.20934   0.21435   0.21722
 Alpha virt. eigenvalues --    0.23170   0.23907   0.24275   0.25186   0.25698
 Alpha virt. eigenvalues --    0.26557   0.27409   0.27907   0.28329   0.29308
 Alpha virt. eigenvalues --    0.29792   0.30179   0.31177   0.31769   0.32233
 Alpha virt. eigenvalues --    0.32906   0.33174   0.34219   0.34820   0.35030
 Alpha virt. eigenvalues --    0.36126   0.36500   0.37032   0.37834   0.39314
 Alpha virt. eigenvalues --    0.40255   0.40957   0.41652   0.42198   0.43367
 Alpha virt. eigenvalues --    0.43553   0.44379   0.44592   0.45304   0.45532
 Alpha virt. eigenvalues --    0.46572   0.47255   0.47991   0.48311   0.48881
 Alpha virt. eigenvalues --    0.49597   0.49794   0.50662   0.50932   0.51006
 Alpha virt. eigenvalues --    0.51996   0.52606   0.52627   0.53266   0.54267
 Alpha virt. eigenvalues --    0.54766   0.55667   0.56094   0.56939   0.57733
 Alpha virt. eigenvalues --    0.57910   0.58230   0.58892   0.59375   0.59715
 Alpha virt. eigenvalues --    0.60501   0.61760   0.62801   0.63985   0.64835
 Alpha virt. eigenvalues --    0.65658   0.66130   0.67485   0.68420   0.70042
 Alpha virt. eigenvalues --    0.70321   0.71147   0.72534   0.73595   0.74806
 Alpha virt. eigenvalues --    0.76096   0.76871   0.78200   0.78414   0.78859
 Alpha virt. eigenvalues --    0.80774   0.81976   0.82752   0.82931   0.83786
 Alpha virt. eigenvalues --    0.85853   0.87883   0.89898   0.90689   0.91222
 Alpha virt. eigenvalues --    0.91831   0.92959   0.94308   0.95073   0.95811
 Alpha virt. eigenvalues --    0.96764   0.97971   0.98375   0.99359   1.00756
 Alpha virt. eigenvalues --    1.01416   1.02099   1.03807   1.05212   1.07591
 Alpha virt. eigenvalues --    1.08824   1.09544   1.09931   1.11143   1.11919
 Alpha virt. eigenvalues --    1.13040   1.13624   1.15869   1.16997   1.18655
 Alpha virt. eigenvalues --    1.19410   1.20093   1.22022   1.22807   1.25186
 Alpha virt. eigenvalues --    1.27101   1.27734   1.29210   1.31712   1.32017
 Alpha virt. eigenvalues --    1.32721   1.32870   1.33782   1.34325   1.35254
 Alpha virt. eigenvalues --    1.36833   1.39031   1.40203   1.41881   1.42272
 Alpha virt. eigenvalues --    1.43860   1.45493   1.46352   1.47314   1.49984
 Alpha virt. eigenvalues --    1.50628   1.51153   1.52743   1.53121   1.53770
 Alpha virt. eigenvalues --    1.55419   1.55540   1.56385   1.58224   1.58955
 Alpha virt. eigenvalues --    1.59292   1.59964   1.60459   1.60937   1.61539
 Alpha virt. eigenvalues --    1.61865   1.62733   1.64073   1.65224   1.65549
 Alpha virt. eigenvalues --    1.66460   1.67561   1.68675   1.69114   1.69436
 Alpha virt. eigenvalues --    1.70213   1.72025   1.73443   1.74551   1.74956
 Alpha virt. eigenvalues --    1.75208   1.75885   1.76970   1.77357   1.78279
 Alpha virt. eigenvalues --    1.79945   1.80348   1.81505   1.82890   1.83385
 Alpha virt. eigenvalues --    1.84621   1.84853   1.86137   1.88675   1.89418
 Alpha virt. eigenvalues --    1.90744   1.92085   1.93074   1.94298   1.94839
 Alpha virt. eigenvalues --    1.95535   1.97565   1.97688   1.99241   2.00195
 Alpha virt. eigenvalues --    2.01136   2.02851   2.04029   2.06116   2.06920
 Alpha virt. eigenvalues --    2.07780   2.10576   2.10915   2.12802   2.13787
 Alpha virt. eigenvalues --    2.14605   2.16356   2.16684   2.17324   2.20431
 Alpha virt. eigenvalues --    2.21210   2.22181   2.25610   2.26051   2.27300
 Alpha virt. eigenvalues --    2.29573   2.30525   2.31888   2.33404   2.34048
 Alpha virt. eigenvalues --    2.35772   2.37435   2.38358   2.39063   2.41505
 Alpha virt. eigenvalues --    2.43232   2.44899   2.45598   2.46845   2.48472
 Alpha virt. eigenvalues --    2.49656   2.51190   2.51782   2.52603   2.54785
 Alpha virt. eigenvalues --    2.58228   2.59128   2.61291   2.61818   2.62197
 Alpha virt. eigenvalues --    2.62647   2.63531   2.64596   2.67576   2.68574
 Alpha virt. eigenvalues --    2.69420   2.70413   2.71168   2.72441   2.73923
 Alpha virt. eigenvalues --    2.74583   2.75416   2.76364   2.77154   2.78162
 Alpha virt. eigenvalues --    2.78339   2.79099   2.80211   2.81940   2.82432
 Alpha virt. eigenvalues --    2.83851   2.85198   2.85787   2.85932   2.86767
 Alpha virt. eigenvalues --    2.87088   2.88549   2.90059   2.91517   2.93197
 Alpha virt. eigenvalues --    2.93635   2.94217   2.96076   2.97168   2.98335
 Alpha virt. eigenvalues --    3.00513   3.00942   3.04895   3.05897   3.07385
 Alpha virt. eigenvalues --    3.08664   3.09934   3.12098   3.13196   3.13433
 Alpha virt. eigenvalues --    3.15120   3.15605   3.17716   3.18841   3.19853
 Alpha virt. eigenvalues --    3.20468   3.21022   3.21950   3.22695   3.23323
 Alpha virt. eigenvalues --    3.24016   3.24582   3.25411   3.26737   3.27851
 Alpha virt. eigenvalues --    3.29124   3.29929   3.30299   3.33550   3.34204
 Alpha virt. eigenvalues --    3.34874   3.35394   3.35917   3.36652   3.38212
 Alpha virt. eigenvalues --    3.39143   3.40082   3.41071   3.41985   3.42600
 Alpha virt. eigenvalues --    3.42907   3.44452   3.45742   3.46497   3.46972
 Alpha virt. eigenvalues --    3.48676   3.49205   3.50361   3.51374   3.52694
 Alpha virt. eigenvalues --    3.54382   3.55067   3.56447   3.56980   3.57196
 Alpha virt. eigenvalues --    3.58349   3.59597   3.61780   3.63745   3.63875
 Alpha virt. eigenvalues --    3.64863   3.67053   3.68095   3.71120   3.72644
 Alpha virt. eigenvalues --    3.73304   3.75151   3.76971   3.78270   3.78647
 Alpha virt. eigenvalues --    3.81365   3.85873   3.87121   3.89213   3.90046
 Alpha virt. eigenvalues --    3.90267   3.93587   3.96343   3.98903   3.99964
 Alpha virt. eigenvalues --    4.00799   4.03383   4.04945   4.05964   4.10784
 Alpha virt. eigenvalues --    4.12075   4.13206   4.15290   4.16742   4.19206
 Alpha virt. eigenvalues --    4.20734   4.21480   4.23058   4.25231   4.26658
 Alpha virt. eigenvalues --    4.27737   4.29478   4.30693   4.31036   4.32351
 Alpha virt. eigenvalues --    4.34676   4.34952   4.36310   4.37607   4.39012
 Alpha virt. eigenvalues --    4.41310   4.42137   4.43258   4.44373   4.45196
 Alpha virt. eigenvalues --    4.48200   4.51980   4.54070   4.58820   4.60626
 Alpha virt. eigenvalues --    4.61506   4.64322   4.66618   4.70938   4.75834
 Alpha virt. eigenvalues --    4.78409   4.79074   4.79822   4.81625   4.85075
 Alpha virt. eigenvalues --    4.90789   4.93432   4.97217   4.98437   4.99640
 Alpha virt. eigenvalues --    5.05277   5.06533   5.09478   5.11975   5.17889
 Alpha virt. eigenvalues --    5.20345   5.23471   5.25056   5.30169   5.31491
 Alpha virt. eigenvalues --    5.33195   5.34759   5.36928   5.38753   5.49181
 Alpha virt. eigenvalues --    5.52104   5.56643   5.62193   5.65346   5.67921
 Alpha virt. eigenvalues --    5.74299   5.79431   5.92486   6.18670   6.42738
 Alpha virt. eigenvalues --    6.47850   6.58278   6.61194   6.92543   7.10276
 Alpha virt. eigenvalues --    7.15711   7.78980  22.24378  22.46360  22.54493
 Alpha virt. eigenvalues --   22.59022  22.72667  22.73749  22.88736  22.93918
 Alpha virt. eigenvalues --   22.97710  23.19560  23.45241  32.20943  44.03923
          Condensed to atoms (all electrons):
               1          2          3          4          5          6
     1  C    6.979543  -0.099257  -0.254500   0.405639   0.011870  -0.001694
     2  C   -0.099257   4.797221   0.699357  -0.040050   0.000669  -0.000116
     3  O   -0.254500   0.699357   8.073157   0.004519  -0.000006   0.000001
     4  C    0.405639  -0.040050   0.004519   5.345156   0.020337  -0.002896
     5  C    0.011870   0.000669  -0.000006   0.020337   4.861861   0.402931
     6  H   -0.001694  -0.000116   0.000001  -0.002896   0.402931   0.506781
     7  H    0.005533   0.000142   0.000000   0.017517   0.429376  -0.028508
     8  H   -0.000785  -0.000009   0.000000  -0.003683   0.407690  -0.013141
     9  N   -0.132808  -0.009330   0.000275   0.038167   0.209239  -0.016129
    10  H    0.011673   0.002278  -0.000128  -0.011154  -0.019197  -0.011217
    11  H    0.000622  -0.000065  -0.000040  -0.015991  -0.016129   0.001944
    12  Br  -0.101990   0.007189  -0.000340   0.349059  -0.008258   0.000933
    13  C   -0.066819  -0.038716  -0.000833   0.173162  -0.027975   0.003096
    14  H   -0.029872   0.003573   0.000007   0.003240  -0.000190   0.000079
    15  H   -0.007055  -0.002428   0.000048  -0.039517   0.000208  -0.000015
    16  H    0.024491   0.000059  -0.000011  -0.050554  -0.000830  -0.000184
    17  C    0.027966  -0.041078  -0.002425  -0.208864   0.000644  -0.000053
    18  C   -0.213114   0.040232   0.030309  -0.009577  -0.000027   0.000005
    19  C    0.022710  -0.006870  -0.004382   0.002114  -0.000002  -0.000000
    20  C   -0.016523   0.003733   0.002271  -0.001246  -0.000005   0.000000
    21  C    0.025007  -0.006617  -0.004424   0.002456  -0.000037  -0.000001
    22  C   -0.249551   0.035733   0.032464  -0.008617  -0.000021   0.000098
    23  H   -0.003114   0.001658   0.000498   0.002219  -0.000003   0.000000
    24  H   -0.000017  -0.000087  -0.000038  -0.000058   0.000000  -0.000000
    25  H   -0.000011   0.000010   0.000005  -0.000001  -0.000000   0.000000
    26  H    0.000017  -0.000133  -0.000041   0.000071  -0.000003   0.000000
    27  H    0.001370   0.004583   0.000250  -0.007516   0.000379  -0.000051
    28  H   -0.235675   0.537672  -0.068940  -0.026571   0.000087  -0.000023
               7          8          9         10         11         12
     1  C    0.005533  -0.000785  -0.132808   0.011673   0.000622  -0.101990
     2  C    0.000142  -0.000009  -0.009330   0.002278  -0.000065   0.007189
     3  O    0.000000   0.000000   0.000275  -0.000128  -0.000040  -0.000340
     4  C    0.017517  -0.003683   0.038167  -0.011154  -0.015991   0.349059
     5  C    0.429376   0.407690   0.209239  -0.019197  -0.016129  -0.008258
     6  H   -0.028508  -0.013141  -0.016129  -0.011217   0.001944   0.000933
     7  H    0.532691  -0.027684  -0.067926   0.003383   0.003749   0.002793
     8  H   -0.027684   0.500484  -0.016590   0.002736  -0.011484  -0.000114
     9  N   -0.067926  -0.016590   6.632305   0.354367   0.355879  -0.066068
    10  H    0.003383   0.002736   0.354367   0.405705  -0.021342   0.004412
    11  H    0.003749  -0.011484   0.355879  -0.021342   0.410829  -0.000605
    12  Br   0.002793  -0.000114  -0.066068   0.004412  -0.000605  34.980228
    13  C   -0.017057   0.001965   0.061789  -0.009578   0.002073  -0.070560
    14  H    0.000141  -0.000062  -0.006864   0.000554   0.000090   0.006871
    15  H   -0.000243   0.000009   0.004399   0.000047  -0.000159   0.000658
    16  H    0.004545   0.000109  -0.005704  -0.000238   0.000198  -0.007833
    17  C    0.000433  -0.000086  -0.011250   0.001015   0.004970   0.018453
    18  C   -0.000003  -0.000016   0.000751  -0.000203   0.000095  -0.013482
    19  C   -0.000000   0.000001  -0.000054   0.000018  -0.000033   0.004872
    20  C   -0.000000  -0.000001   0.000136  -0.000020  -0.000047  -0.001406
    21  C   -0.000001  -0.000002  -0.000285   0.000067   0.000701   0.002562
    22  C   -0.000147   0.000120   0.007722  -0.001686   0.004261  -0.006572
    23  H   -0.000001   0.000000   0.000151  -0.000008  -0.000011   0.001484
    24  H    0.000000  -0.000000  -0.000002   0.000000   0.000001   0.000053
    25  H    0.000000  -0.000000   0.000000  -0.000000  -0.000000  -0.000010
    26  H   -0.000000   0.000001  -0.000002  -0.000001   0.000004   0.000032
    27  H    0.000047  -0.000061  -0.000131   0.001117   0.001666   0.000628
    28  H    0.000034   0.000002  -0.001142   0.000151  -0.000066  -0.000609
              13         14         15         16         17         18
     1  C   -0.066819  -0.029872  -0.007055   0.024491   0.027966  -0.213114
     2  C   -0.038716   0.003573  -0.002428   0.000059  -0.041078   0.040232
     3  O   -0.000833   0.000007   0.000048  -0.000011  -0.002425   0.030309
     4  C    0.173162   0.003240  -0.039517  -0.050554  -0.208864  -0.009577
     5  C   -0.027975  -0.000190   0.000208  -0.000830   0.000644  -0.000027
     6  H    0.003096   0.000079  -0.000015  -0.000184  -0.000053   0.000005
     7  H   -0.017057   0.000141  -0.000243   0.004545   0.000433  -0.000003
     8  H    0.001965  -0.000062   0.000009   0.000109  -0.000086  -0.000016
     9  N    0.061789  -0.006864   0.004399  -0.005704  -0.011250   0.000751
    10  H   -0.009578   0.000554   0.000047  -0.000238   0.001015  -0.000203
    11  H    0.002073   0.000090  -0.000159   0.000198   0.004970   0.000095
    12  Br  -0.070560   0.006871   0.000658  -0.007833   0.018453  -0.013482
    13  C    5.127199   0.402175   0.425135   0.415638   0.006548  -0.001541
    14  H    0.402175   0.510488  -0.017123  -0.022216  -0.002808   0.000046
    15  H    0.425135  -0.017123   0.483327  -0.015733  -0.000218   0.000126
    16  H    0.415638  -0.022216  -0.015733   0.504813   0.000875   0.000009
    17  C    0.006548  -0.002808  -0.000218   0.000875   5.468548   0.321020
    18  C   -0.001541   0.000046   0.000126   0.000009   0.321020   5.236083
    19  C    0.000143  -0.000001   0.000001  -0.000006   0.070733   0.361388
    20  C   -0.000022  -0.000000   0.000001   0.000002  -0.137809   0.070409
    21  C    0.000113   0.000002  -0.000001  -0.000007   0.065662  -0.112798
    22  C    0.002185  -0.000030  -0.000019   0.000067   0.308507   0.118198
    23  H    0.000216  -0.000007   0.000023   0.000014  -0.073343   0.459779
    24  H   -0.000002  -0.000000  -0.000000  -0.000000   0.016289  -0.063954
    25  H    0.000000  -0.000000  -0.000000   0.000000  -0.004483   0.011921
    26  H    0.000002  -0.000000  -0.000000   0.000000   0.014674  -0.004783
    27  H   -0.000692   0.000006  -0.000006   0.000011  -0.054744   0.010248
    28  H   -0.019483  -0.003087  -0.002727   0.001681   0.035663   0.003267
              19         20         21         22         23         24
     1  C    0.022710  -0.016523   0.025007  -0.249551  -0.003114  -0.000017
     2  C   -0.006870   0.003733  -0.006617   0.035733   0.001658  -0.000087
     3  O   -0.004382   0.002271  -0.004424   0.032464   0.000498  -0.000038
     4  C    0.002114  -0.001246   0.002456  -0.008617   0.002219  -0.000058
     5  C   -0.000002  -0.000005  -0.000037  -0.000021  -0.000003   0.000000
     6  H   -0.000000   0.000000  -0.000001   0.000098   0.000000  -0.000000
     7  H   -0.000000  -0.000000  -0.000001  -0.000147  -0.000001   0.000000
     8  H    0.000001  -0.000001  -0.000002   0.000120   0.000000  -0.000000
     9  N   -0.000054   0.000136  -0.000285   0.007722   0.000151  -0.000002
    10  H    0.000018  -0.000020   0.000067  -0.001686  -0.000008   0.000000
    11  H   -0.000033  -0.000047   0.000701   0.004261  -0.000011   0.000001
    12  Br   0.004872  -0.001406   0.002562  -0.006572   0.001484   0.000053
    13  C    0.000143  -0.000022   0.000113   0.002185   0.000216  -0.000002
    14  H   -0.000001  -0.000000   0.000002  -0.000030  -0.000007  -0.000000
    15  H    0.000001   0.000001  -0.000001  -0.000019   0.000023  -0.000000
    16  H   -0.000006   0.000002  -0.000007   0.000067   0.000014  -0.000000
    17  C    0.070733  -0.137809   0.065662   0.308507  -0.073343   0.016289
    18  C    0.361388   0.070409  -0.112798   0.118198   0.459779  -0.063954
    19  C    5.052827   0.357720   0.057248  -0.125406  -0.055513   0.460419
    20  C    0.357720   5.052716   0.369372   0.078213   0.012812  -0.061773
    21  C    0.057248   0.369372   5.040705   0.354288  -0.005529   0.013150
    22  C   -0.125406   0.078213   0.354288   5.318546   0.016903  -0.005664
    23  H   -0.055513   0.012812  -0.005529   0.016903   0.507107  -0.007488
    24  H    0.460419  -0.061773   0.013150  -0.005664  -0.007488   0.516242
    25  H   -0.058757   0.457050  -0.059602   0.012486  -0.000044  -0.006943
    26  H    0.011925  -0.057081   0.456272  -0.060556   0.000015  -0.000043
    27  H   -0.003122   0.007682  -0.034599   0.430805  -0.000062   0.000036
    28  H   -0.000295   0.000117  -0.000314   0.003190   0.000204  -0.000003
              25         26         27         28
     1  C   -0.000011   0.000017   0.001370  -0.235675
     2  C    0.000010  -0.000133   0.004583   0.537672
     3  O    0.000005  -0.000041   0.000250  -0.068940
     4  C   -0.000001   0.000071  -0.007516  -0.026571
     5  C   -0.000000  -0.000003   0.000379   0.000087
     6  H    0.000000   0.000000  -0.000051  -0.000023
     7  H    0.000000  -0.000000   0.000047   0.000034
     8  H   -0.000000   0.000001  -0.000061   0.000002
     9  N    0.000000  -0.000002  -0.000131  -0.001142
    10  H   -0.000000  -0.000001   0.001117   0.000151
    11  H   -0.000000   0.000004   0.001666  -0.000066
    12  Br  -0.000010   0.000032   0.000628  -0.000609
    13  C    0.000000   0.000002  -0.000692  -0.019483
    14  H   -0.000000  -0.000000   0.000006  -0.003087
    15  H   -0.000000  -0.000000  -0.000006  -0.002727
    16  H    0.000000   0.000000   0.000011   0.001681
    17  C   -0.004483   0.014674  -0.054744   0.035663
    18  C    0.011921  -0.004783   0.010248   0.003267
    19  C   -0.058757   0.011925  -0.003122  -0.000295
    20  C    0.457050  -0.057081   0.007682   0.000117
    21  C   -0.059602   0.456272  -0.034599  -0.000314
    22  C    0.012486  -0.060556   0.430805   0.003190
    23  H   -0.000044   0.000015  -0.000062   0.000204
    24  H   -0.006943  -0.000043   0.000036  -0.000003
    25  H    0.512408  -0.006892  -0.000066   0.000000
    26  H   -0.006892   0.512365  -0.005988  -0.000004
    27  H   -0.000066  -0.005988   0.492165   0.000300
    28  H    0.000000  -0.000004   0.000300   0.706875
 Mulliken charges:
               1
     1  C   -0.103652
     2  C    0.110644
     3  O   -0.507055
     4  C    0.062637
     5  C   -0.272609
     6  H    0.158161
     7  H    0.141187
     8  H    0.160604
     9  N   -0.330895
    10  H    0.287248
    11  H    0.278890
    12  Br  -0.102381
    13  C   -0.368160
    14  H    0.154986
    15  H    0.171261
    16  H    0.150800
    17  C    0.175161
    18  C   -0.244389
    19  C   -0.147677
    20  C   -0.136300
    21  C   -0.163387
    22  C   -0.265519
    23  H    0.142038
    24  H    0.139883
    25  H    0.142929
    26  H    0.140151
    27  H    0.155746
    28  H    0.069696
 Sum of Mulliken charges =  -0.00000
 Mulliken charges with hydrogens summed into heavy atoms:
               1
     1  C   -0.103652
     2  C    0.180340
     3  O   -0.507055
     4  C    0.062637
     5  C    0.187343
     9  N    0.235243
    12  Br  -0.102381
    13  C    0.108888
    17  C    0.175161
    18  C   -0.102352
    19  C   -0.007794
    20  C    0.006629
    21  C   -0.023236
    22  C   -0.109773
 APT charges:
               1
     1  C    0.293812
     2  C   -0.912749
     3  O   -0.019656
     4  C   -0.188982
     5  C   -1.375801
     6  H    0.726358
     7  H    0.313720
     8  H    0.428871
     9  N   -0.449346
    10  H    0.601224
    11  H    0.272305
    12  Br   0.085345
    13  C   -1.381109
    14  H    0.477877
    15  H    0.440637
    16  H    0.492732
    17  C   -0.279060
    18  C   -0.582498
    19  C   -0.589823
    20  C   -0.636010
    21  C   -0.584016
    22  C   -0.618179
    23  H    0.336312
    24  H    0.731855
    25  H    0.926242
    26  H    0.725638
    27  H    0.328030
    28  H    0.436271
 Sum of APT charges =  -0.00000
 APT charges with hydrogens summed into heavy atoms:
               1
     1  C    0.293812
     2  C   -0.476478
     3  O   -0.019656
     4  C   -0.188982
     5  C    0.093148
     9  N    0.424183
    12  Br   0.085345
    13  C    0.030137
    17  C   -0.279060
    18  C   -0.246186
    19  C    0.142032
    20  C    0.290231
    21  C    0.141622
    22  C   -0.290149
 Electronic spatial extent (au):  <R**2>=           3567.4151
 Charge=             -0.0000 electrons
 Dipole moment (field-independent basis, Debye):
    X=             -8.1608    Y=             -3.6386    Z=              5.5176  Tot=             10.5015
 Quadrupole moment (field-independent basis, Debye-Ang):
   XX=            -87.2706   YY=           -113.9486   ZZ=            -82.9193
   XY=            -19.8450   XZ=             -5.4687   YZ=              3.7410
 Traceless Quadrupole moment (field-independent basis, Debye-Ang):
   XX=              7.4422   YY=            -19.2358   ZZ=             11.7936
   XY=            -19.8450   XZ=             -5.4687   YZ=              3.7410
 Octapole moment (field-independent basis, Debye-Ang**2):
  XXX=            -84.1176  YYY=            -96.1634  ZZZ=              7.5345  XYY=            -64.4111
  XXY=            -39.0468  XXZ=             18.4136  XZZ=            -27.4172  YZZ=            -11.2352
  YYZ=              6.6892  XYZ=              7.5625
 Hexadecapole moment (field-independent basis, Debye-Ang**3):
 XXXX=          -2495.2930 YYYY=          -1373.2687 ZZZZ=           -713.3089 XXXY=            -78.1752
 XXXZ=            -18.3121 YYYX=            -75.1288 YYYZ=             77.7167 ZZZX=            -13.1320
 ZZZY=             36.3213 XXYY=           -656.2507 XXZZ=           -492.5454 YYZZ=           -315.1434
 XXYZ=             15.9970 YYXZ=             14.0278 ZZXY=             -3.1711
 N-N= 1.249371009132D+03 E-N=-9.948892471900D+03  KE= 3.125419739063D+03
  Exact polarizability:   0.000   0.000   0.000   0.000   0.000   0.000
 Approx polarizability: 195.046   1.611 186.863  -6.509   0.426 184.330
   1 Symmetry operations used in ECPInt.
 ECPInt:  NShTT=   23220 NPrTT=   73930 LenC2=   21748 LenP2D=   50917.
 LDataN:  DoStor=T MaxTD1= 8 Len=  415
 D2PCM: PCM CHGder 2nd derivatives, FixD1E=F FixD2E=F DoIter=F DoCFld=F I1PDM=0
 Calling FoFJK, ICntrl=    100147 FMM=F ISym2X=0 I1Cent= 0 IOpClX= 0 NMat=1 NMatS=1 NMatT=0.
 ***** Axes restored to original set *****
 -------------------------------------------------------------------
 Center     Atomic                   Forces (Hartrees/Bohr)
 Number     Number              X              Y              Z
 -------------------------------------------------------------------
      1        6          -0.000000021   -0.000006444    0.000000418
      2        6           0.000002714    0.000007573   -0.000003296
      3        8          -0.000005814   -0.000003932   -0.000002227
      4        6          -0.000005892   -0.000001582    0.000014703
      5        6          -0.000004453    0.000007796   -0.000002280
      6        1           0.000001261   -0.000000312    0.000003255
      7        1           0.000003014   -0.000002199    0.000002050
      8        1           0.000002073   -0.000001092    0.000002170
      9        7           0.000011798    0.000002531   -0.000011162
     10        1          -0.000000381   -0.000001319   -0.000003349
     11        1          -0.000001800    0.000001708    0.000001466
     12       35          -0.000000418   -0.000001682    0.000003938
     13        6          -0.000004659   -0.000003392   -0.000002280
     14        1          -0.000000457   -0.000001825    0.000000842
     15        1          -0.000001732   -0.000002595    0.000004762
     16        1           0.000001723    0.000002352   -0.000000881
     17        6          -0.000000432    0.000002957   -0.000002063
     18        6          -0.000000649   -0.000002341    0.000000387
     19        6           0.000001494   -0.000001605    0.000003156
     20        6          -0.000001691    0.000001720   -0.000005739
     21        6           0.000001875   -0.000000200   -0.000000098
     22        6          -0.000001083    0.000002109   -0.000003977
     23        1          -0.000000663   -0.000000877    0.000001452
     24        1          -0.000000597   -0.000000678   -0.000000745
     25        1           0.000000437    0.000001337    0.000000326
     26        1           0.000001607    0.000002345    0.000001039
     27        1           0.000001414    0.000001535   -0.000000411
     28        1           0.000001331   -0.000001890   -0.000001457
 -------------------------------------------------------------------
 Cartesian Forces:  Max     0.000014703 RMS     0.000003571
 FormGI is forming the generalized inverse of G from B-inverse, IUseBI=4.

 GradGradGradGradGradGradGradGradGradGradGradGradGradGradGradGradGradGrad
 Berny optimization.
 Internal  Forces:  Max     0.000018379 RMS     0.000002212
 Search for a saddle point.
 Step number   1 out of a maximum of   70
 All quantities printed in internal units (Hartrees-Bohrs-Radians)
 Swapping is turned off.
 Second derivative matrix not updated -- analytic derivatives used.
 ITU=  0
     Eigenvalues ---   -0.03256  -0.00127   0.00298   0.00459   0.00631
     Eigenvalues ---    0.00927   0.01386   0.01528   0.01722   0.01792
     Eigenvalues ---    0.01827   0.01880   0.02332   0.02512   0.02646
     Eigenvalues ---    0.02682   0.02912   0.02994   0.03160   0.04408
     Eigenvalues ---    0.04493   0.04691   0.04766   0.04800   0.06254
     Eigenvalues ---    0.07119   0.08007   0.09427   0.10108   0.10870
     Eigenvalues ---    0.11387   0.11774   0.12277   0.12327   0.12647
     Eigenvalues ---    0.12691   0.13118   0.14073   0.14608   0.14813
     Eigenvalues ---    0.15814   0.16979   0.17189   0.17815   0.18401
     Eigenvalues ---    0.19350   0.19508   0.19546   0.20746   0.21274
     Eigenvalues ---    0.23137   0.27840   0.28894   0.31385   0.31477
     Eigenvalues ---    0.34131   0.34553   0.34766   0.34806   0.35082
     Eigenvalues ---    0.35500   0.35838   0.36079   0.36181   0.36254
     Eigenvalues ---    0.36278   0.36424   0.37294   0.38961   0.41965
     Eigenvalues ---    0.42870   0.45397   0.45656   0.47606   0.47958
     Eigenvalues ---    0.49502   0.51839   0.74138
 Eigenvectors required to have negative eigenvalues:
                          R6        D6        D9        A11       R2
   1                    0.87611   0.18101   0.17402  -0.13657  -0.12202
                          D25       D26       D30       R7        D24
   1                    0.11022   0.10737  -0.10680  -0.10426   0.10341
 RFO step:  Lambda0=6.684545598D-09 Lambda=-1.27496167D-03.
 Linear search not attempted -- option 19 set.
 Iteration  1 RMS(Cart)=  0.00664009 RMS(Int)=  0.00006439
 Iteration  2 RMS(Cart)=  0.00006798 RMS(Int)=  0.00000004
 Iteration  3 RMS(Cart)=  0.00000001 RMS(Int)=  0.00000004
 Variable       Old X    -DE/DX   Delta X   Delta X   Delta X     New X
                                 (Linear)    (Quad)   (Total)
    R1        2.68720   0.00000   0.00000   0.00006   0.00006   2.68726
    R2        2.63953   0.00000   0.00000  -0.00003  -0.00003   2.63950
    R3        2.81626  -0.00000   0.00000   0.00001   0.00001   2.81627
    R4        2.33158  -0.00001   0.00000  -0.00003  -0.00003   2.33155
    R5        2.08380  -0.00000   0.00000  -0.00001  -0.00001   2.08378
    R6        3.71163  -0.00002   0.00000   0.00025   0.00025   3.71189
    R7        3.70421  -0.00000   0.00000  -0.00006  -0.00006   3.70416
    R8        2.84192   0.00000   0.00000  -0.00002  -0.00002   2.84191
    R9        2.05547  -0.00000   0.00000   0.00015   0.00015   2.05562
   R10        2.06029  -0.00000   0.00000  -0.00008  -0.00008   2.06021
   R11        2.05442   0.00000   0.00000  -0.00015  -0.00015   2.05428
   R12        2.77751   0.00000   0.00000  -0.00006  -0.00006   2.77745
   R13        1.91402  -0.00000   0.00000   0.00005   0.00005   1.91407
   R14        1.91297  -0.00000   0.00000  -0.00002  -0.00002   1.91295
   R15        2.05698  -0.00000   0.00000  -0.00001  -0.00001   2.05697
   R16        2.05977  -0.00000   0.00000  -0.00001  -0.00001   2.05975
   R17        2.05430  -0.00000   0.00000  -0.00005  -0.00005   2.05426
   R18        2.63426  -0.00000   0.00000  -0.00000  -0.00000   2.63426
   R19        2.63317  -0.00000   0.00000   0.00000   0.00000   2.63317
   R20        2.61963   0.00000   0.00000   0.00000   0.00000   2.61963
   R21        2.04723  -0.00000   0.00000  -0.00001  -0.00001   2.04722
   R22        2.62418  -0.00000   0.00000  -0.00001  -0.00001   2.62417
   R23        2.04667   0.00000   0.00000   0.00000   0.00000   2.04667
   R24        2.62001   0.00000   0.00000   0.00000   0.00000   2.62002
   R25        2.04614  -0.00000   0.00000   0.00000   0.00000   2.04614
   R26        2.62414   0.00000   0.00000   0.00000   0.00000   2.62414
   R27        2.04645   0.00000   0.00000   0.00000   0.00000   2.04645
   R28        2.04903  -0.00000   0.00000   0.00001   0.00001   2.04904
    A1        2.09375   0.00000   0.00000   0.00003   0.00003   2.09378
    A2        2.05286  -0.00000   0.00000  -0.00005  -0.00005   2.05281
    A3        2.13577   0.00000   0.00000   0.00002   0.00002   2.13579
    A4        2.19332  -0.00000   0.00000  -0.00002  -0.00002   2.19330
    A5        2.02821   0.00000   0.00000   0.00003   0.00003   2.02824
    A6        2.06143   0.00000   0.00000  -0.00001  -0.00001   2.06143
    A7        1.86306   0.00000   0.00000  -0.00009  -0.00009   1.86297
    A8        2.02216  -0.00000   0.00000   0.00015   0.00015   2.02232
    A9        2.15112  -0.00000   0.00000  -0.00011  -0.00011   2.15101
   A10        1.69098  -0.00000   0.00000  -0.00016  -0.00016   1.69083
   A11        1.72314  -0.00000   0.00000   0.00018   0.00018   1.72331
   A12        1.92099   0.00000   0.00000  -0.00000  -0.00000   1.92099
   A13        1.89604   0.00000   0.00000  -0.00004  -0.00004   1.89601
   A14        1.90530  -0.00000   0.00000  -0.00011  -0.00011   1.90519
   A15        1.92850   0.00000   0.00000   0.00076   0.00076   1.92926
   A16        1.88760  -0.00000   0.00000   0.00005   0.00005   1.88765
   A17        1.91777  -0.00000   0.00000   0.00025   0.00025   1.91802
   A18        1.92785  -0.00000   0.00000  -0.00092  -0.00092   1.92693
   A19        2.14186  -0.00001   0.00000   0.00051   0.00051   2.14236
   A20        1.75108   0.00000   0.00000   0.00008   0.00008   1.75116
   A21        1.76572   0.00000   0.00000  -0.00019  -0.00019   1.76553
   A22        1.95754   0.00000   0.00000   0.00008   0.00008   1.95762
   A23        1.94826   0.00000   0.00000  -0.00048  -0.00048   1.94778
   A24        1.87179  -0.00000   0.00000  -0.00001  -0.00001   1.87179
   A25        1.94061  -0.00000   0.00000   0.00007   0.00007   1.94068
   A26        1.91026   0.00000   0.00000  -0.00012  -0.00012   1.91014
   A27        1.93831   0.00000   0.00000   0.00019   0.00019   1.93850
   A28        1.90002   0.00000   0.00000  -0.00004  -0.00004   1.89998
   A29        1.88939  -0.00000   0.00000   0.00002   0.00002   1.88941
   A30        1.88396  -0.00000   0.00000  -0.00013  -0.00013   1.88383
   A31        2.10895   0.00000   0.00000   0.00000   0.00000   2.10896
   A32        2.11210   0.00000   0.00000   0.00001   0.00001   2.11211
   A33        2.06173  -0.00000   0.00000  -0.00001  -0.00001   2.06171
   A34        2.11254   0.00000   0.00000   0.00001   0.00001   2.11255
   A35        2.07810  -0.00000   0.00000  -0.00001  -0.00001   2.07809
   A36        2.09253   0.00000   0.00000  -0.00000  -0.00000   2.09253
   A37        2.09692  -0.00000   0.00000  -0.00000  -0.00000   2.09692
   A38        2.09115  -0.00000   0.00000  -0.00001  -0.00001   2.09114
   A39        2.09511   0.00000   0.00000   0.00001   0.00001   2.09512
   A40        2.08635   0.00000   0.00000   0.00000   0.00000   2.08635
   A41        2.09839   0.00000   0.00000   0.00000   0.00000   2.09839
   A42        2.09844  -0.00000   0.00000  -0.00001  -0.00001   2.09843
   A43        2.09497  -0.00000   0.00000  -0.00000  -0.00000   2.09497
   A44        2.09728   0.00000   0.00000   0.00000   0.00000   2.09728
   A45        2.09093   0.00000   0.00000   0.00000   0.00000   2.09093
   A46        2.11366   0.00000   0.00000   0.00000   0.00000   2.11366
   A47        2.08647   0.00000   0.00000   0.00002   0.00002   2.08649
   A48        2.08287  -0.00000   0.00000  -0.00003  -0.00003   2.08285
    D1        3.12206  -0.00000   0.00000  -0.00002  -0.00002   3.12205
    D2       -0.04260   0.00000   0.00000  -0.00000  -0.00000  -0.04261
    D3        0.02275  -0.00000   0.00000   0.00002   0.00002   0.02278
    D4        3.14127  -0.00000   0.00000   0.00004   0.00004   3.14131
    D5       -1.77789  -0.00000   0.00000   0.00029   0.00029  -1.77760
    D6        2.64550   0.00000   0.00000   0.00046   0.00046   2.64596
    D7        0.19002  -0.00000   0.00000   0.00039   0.00039   0.19041
    D8        1.31934   0.00000   0.00000   0.00025   0.00025   1.31959
    D9       -0.54045   0.00000   0.00000   0.00042   0.00042  -0.54003
   D10       -2.99593  -0.00000   0.00000   0.00034   0.00034  -2.99559
   D11       -1.58630  -0.00000   0.00000  -0.00112  -0.00112  -1.58742
   D12        1.52424  -0.00000   0.00000  -0.00108  -0.00108   1.52316
   D13        1.59866  -0.00000   0.00000  -0.00107  -0.00107   1.59759
   D14       -1.57398  -0.00000   0.00000  -0.00103  -0.00103  -1.57502
   D15       -3.02256   0.00000   0.00000   0.00539   0.00539  -3.01717
   D16        1.07992   0.00000   0.00000   0.00487   0.00487   1.08479
   D17       -0.84116  -0.00000   0.00000   0.00491   0.00491  -0.83625
   D18       -0.93375  -0.00000   0.00000   0.00546   0.00546  -0.92828
   D19       -3.11445   0.00000   0.00000   0.00494   0.00494  -3.10951
   D20        1.24766  -0.00000   0.00000   0.00498   0.00498   1.25264
   D21        1.01409   0.00000   0.00000   0.00546   0.00546   1.01955
   D22       -1.16662   0.00000   0.00000   0.00494   0.00494  -1.16168
   D23       -3.08769   0.00000   0.00000   0.00498   0.00498  -3.08271
   D24       -0.90289  -0.00000   0.00000  -0.00003  -0.00003  -0.90292
   D25        1.19686  -0.00000   0.00000  -0.00012  -0.00012   1.19674
   D26       -3.00798  -0.00000   0.00000  -0.00023  -0.00023  -3.00821
   D27        1.13380   0.00000   0.00000  -0.00006  -0.00006   1.13373
   D28       -3.04964   0.00000   0.00000  -0.00015  -0.00015  -3.04979
   D29       -0.97129   0.00000   0.00000  -0.00026  -0.00026  -0.97155
   D30        2.89089  -0.00000   0.00000  -0.00016  -0.00016   2.89073
   D31       -1.29255  -0.00000   0.00000  -0.00025  -0.00025  -1.29280
   D32        0.78580  -0.00000   0.00000  -0.00036  -0.00036   0.78544
   D33       -2.14998   0.00000   0.00000  -0.02504  -0.02504  -2.17503
   D34       -0.06507  -0.00000   0.00000  -0.02443  -0.02443  -0.08949
   D35        2.03607  -0.00000   0.00000  -0.02472  -0.02472   2.01134
   D36       -0.05800   0.00000   0.00000  -0.02445  -0.02445  -0.08245
   D37        2.02692   0.00000   0.00000  -0.02384  -0.02384   2.00309
   D38       -2.15513   0.00000   0.00000  -0.02413  -0.02413  -2.17926
   D39        2.02313   0.00000   0.00000  -0.02480  -0.02480   1.99833
   D40       -2.17514  -0.00000   0.00000  -0.02418  -0.02418  -2.19932
   D41       -0.07400  -0.00000   0.00000  -0.02448  -0.02448  -0.09848
   D42        3.13037   0.00000   0.00000   0.00011   0.00011   3.13048
   D43       -0.01755   0.00000   0.00000   0.00009   0.00009  -0.01746
   D44        0.01895  -0.00000   0.00000   0.00007   0.00007   0.01902
   D45       -3.12896   0.00000   0.00000   0.00005   0.00005  -3.12891
   D46       -3.13353  -0.00000   0.00000  -0.00012  -0.00012  -3.13365
   D47       -0.01292  -0.00000   0.00000  -0.00012  -0.00012  -0.01304
   D48       -0.02217  -0.00000   0.00000  -0.00008  -0.00008  -0.02225
   D49        3.09844  -0.00000   0.00000  -0.00008  -0.00008   3.09836
   D50       -0.00344   0.00000   0.00000  -0.00002  -0.00002  -0.00346
   D51        3.13793   0.00000   0.00000  -0.00002  -0.00002   3.13791
   D52       -3.13866  -0.00000   0.00000   0.00000   0.00000  -3.13866
   D53        0.00271  -0.00000   0.00000   0.00000   0.00000   0.00271
   D54       -0.00936   0.00000   0.00000  -0.00003  -0.00003  -0.00939
   D55        3.13893   0.00000   0.00000  -0.00002  -0.00002   3.13891
   D56        3.13246  -0.00000   0.00000  -0.00003  -0.00003   3.13243
   D57       -0.00244  -0.00000   0.00000  -0.00003  -0.00003  -0.00246
   D58        0.00618  -0.00000   0.00000   0.00003   0.00003   0.00621
   D59       -3.12965   0.00000   0.00000   0.00002   0.00002  -3.12964
   D60        3.14108  -0.00000   0.00000   0.00002   0.00002   3.14110
   D61        0.00524   0.00000   0.00000   0.00001   0.00001   0.00526
   D62        0.00988   0.00000   0.00000   0.00003   0.00003   0.00990
   D63       -3.11078   0.00000   0.00000   0.00003   0.00003  -3.11075
   D64       -3.13745  -0.00000   0.00000   0.00003   0.00003  -3.13742
   D65        0.02507  -0.00000   0.00000   0.00004   0.00004   0.02511
         Item               Value     Threshold  Converged?
 Maximum Force            0.000018     0.000450     YES
 RMS     Force            0.000002     0.000300     YES
 Maximum Displacement     0.036462     0.001800     NO 
 RMS     Displacement     0.006640     0.001200     NO 
 Predicted change in Energy=-3.607252D-06
 GradGradGradGradGradGradGradGradGradGradGradGradGradGradGradGradGradGrad

                          Input orientation:                          
 ---------------------------------------------------------------------
 Center     Atomic      Atomic             Coordinates (Angstroms)
 Number     Number       Type             X           Y           Z
 ---------------------------------------------------------------------
      1          6           0        0.093007    1.124079   -0.268816
      2          6           0        0.253007    2.518066   -0.499855
      3          8           0        1.326362    3.126317   -0.514433
      4          6           0       -1.185295    0.561300   -0.255737
      5          6           0       -2.884479   -0.413453    2.047418
      6          1           0       -3.488341    0.211907    2.701301
      7          1           0       -3.478476   -0.677932    1.172324
      8          1           0       -2.625069   -1.330444    2.570455
      9          7           0       -1.669050    0.299754    1.629956
     10          1           0       -1.658191    1.258986    1.955056
     11          1           0       -0.833678   -0.147365    1.986288
     12         35           0       -1.296436   -1.321399   -0.789871
     13          6           0       -2.415572    1.299135   -0.707012
     14          1           0       -2.497545    2.266075   -0.213920
     15          1           0       -2.369748    1.455924   -1.784676
     16          1           0       -3.315067    0.728711   -0.489670
     17          6           0        1.319786    0.324344    0.007681
     18          6           0        2.024740   -0.284338   -1.029507
     19          6           0        3.173673   -1.018281   -0.778582
     20          6           0        3.644139   -1.154701    0.520802
     21          6           0        2.963239   -0.542830    1.562072
     22          6           0        1.815046    0.194155    1.303587
     23          1           0        1.659812   -0.182828   -2.044474
     24          1           0        3.703978   -1.485711   -1.599120
[...]
 0.10951784,-0.08936049,-0.25044178,0.04885215,0.03940422,0.74168289,-0
 .01410395,0.00817763,-0.02893325,-0.00442585,-0.00414277,-0.00091478,0
 .00302768,0.00083212,-0.00033230,0.00345653,0.00375026,-0.00350923,0.0
 0038980,0.00029871,-0.00000570,-0.00014588,-0.00009199,0.00009528,-0.0
 0010374,-0.00006263,-0.00001174,-0.00006442,-0.00002036,-0.00002014,-0
 .00129641,-0.00062973,0.00216055,-0.00011921,-0.00014805,0.00000863,-0
 .00055449,0.00015846,-0.00007114,0.00029001,-0.00018415,-0.00049603,-0
 .00080884,-0.00035787,0.00084679,-0.00005186,-0.00002452,0.00003040,0.
 00007335,-0.00005903,0.00008672,-0.00029821,0.00017468,0.00008204,-0.1
 3199928,0.03491947,-0.03123925,0.05242178,-0.02755568,-0.00480110,-0.0
 3818438,0.01566146,-0.03483105,-0.02715623,0.02940109,0.06024132,-0.25
 937137,0.11354204,-0.06887369,0.54396879,0.01182430,0.00167913,0.01695
 416,0.00132702,0.00057611,-0.00047507,-0.00007021,-0.00078115,0.001111
 93,-0.00290918,-0.00355608,0.00403526,-0.00024918,0.00011451,-0.000487
 63,0.00017111,0.00005206,-0.00007224,-0.00006079,-0.00001780,0.0000408
 2,0.00000882,-0.00003546,0.00000736,0.00006912,0.00022779,-0.00164164,
 0.00029676,-0.00002867,0.00004159,0.00107254,0.00036842,0.00000105,-0.
 00078062,0.00014435,-0.00039301,0.00050307,0.00041616,-0.00056504,0.00
 004511,0.00000390,-0.00001368,-0.00003482,0.00004716,-0.00006673,0.000
 23711,-0.00010036,-0.00004239,0.02824215,-0.08702377,-0.00971232,-0.02
 255700,0.02313281,-0.00430153,0.01510467,-0.01444767,0.01871338,0.0242
 1539,-0.01011982,-0.03110563,0.12172615,-0.13921871,0.03400760,-0.2561
 3660,0.31351366,-0.00769940,0.00491128,-0.00274303,0.00019198,-0.00163
 475,-0.00004404,0.00064449,-0.00026180,-0.00018079,0.00114393,0.000001
 87,0.00093324,0.00001267,0.00016538,-0.00038743,0.00005004,-0.00000231
 ,0.00001562,-0.00009446,-0.00004073,0.00003696,-0.00007638,-0.00004690
 ,0.00003548,-0.00044441,-0.00048657,-0.00042721,0.00054405,-0.00021104
 ,0.00002010,0.00069032,0.00083036,0.00016767,0.00095986,-0.00017328,-0
 .00006298,0.00019234,0.00001108,-0.00014733,0.00003409,-0.00003477,0.0
 0001914,0.00002365,0.00000292,-0.00000921,0.00005895,-0.00003917,0.000
 03224,-0.09221782,0.02912433,-0.29885919,0.03991157,-0.03292824,-0.055
 06287,-0.03297578,0.01781282,-0.03443341,0.01351598,-0.00282280,0.0578
 2306,-0.00731940,-0.00367915,-0.14074136,0.00176201,0.07143908,0.69754
 192,-0.00004198,-0.00232427,0.00040285,0.00068886,0.00026651,-0.000072
 31,-0.00028962,-0.00007664,0.00004183,-0.00056505,-0.00009334,0.000384
 82,-0.00002572,-0.00000059,-0.00005839,0.00002561,0.00000788,-0.000009
 57,0.00000153,-0.00000099,0.00000202,-0.00000129,-0.00000233,0.0000036
 7,0.00009923,0.00006447,-0.00019124,0.,0.00000067,0.00001857,0.0000107
 5,0.00000549,0.00001130,-0.00018094,-0.00005538,0.00015545,-0.00000334
 ,-0.00002844,-0.00004388,0.00001058,-0.00000187,0.00000378,0.00000517,
 0.00000194,-0.00000072,0.00000339,-0.00000301,-0.00000858,0.00787892,-
 0.00066771,0.01612369,-0.08198125,0.01724828,-0.08596561,-0.00367850,0
 .00173506,-0.02596815,-0.00184568,0.00588757,-0.00052843,-0.00101210,0
 .00011262,0.00049531,0.00046954,0.00421197,0.00255167,0.08095279,-0.00
 264320,-0.00236284,0.00031226,0.00050556,-0.00026685,-0.00009984,-0.00
 011542,0.00016700,0.00001721,-0.00005981,0.00073149,-0.00015115,0.0000
 2304,-0.00000140,0.00004987,-0.00002103,-0.00000978,0.00000613,0.00000
 060,0.00000040,-0.00000348,-0.00000442,-0.00000264,0.00000159,-0.00010
 524,-0.00008549,0.00015819,-0.00000114,-0.00000124,-0.00002571,-0.0000
 3528,-0.00000380,0.00001716,0.00010909,-0.00002992,0.00004196,-0.00005
 979,-0.00008774,-0.00000039,-0.00000329,-0.00000794,0.00000647,-0.0000
 1323,0.00000161,-0.00000470,-0.00003576,0.00001174,-0.00000771,-0.0032
 3204,0.00466406,-0.01252632,0.01708789,-0.04701427,0.02364339,0.004884
 84,0.00244880,0.01578730,0.00592637,0.00403025,-0.00051331,-0.00008327
 ,-0.00086423,-0.00017706,0.00423937,0.00389103,-0.00240672,-0.02336012
 ,0.03829187,-0.00091562,0.00115664,0.00136274,0.00020623,-0.00034282,0
 .00001092,0.00005874,0.00004285,0.00009435,0.00056344,-0.00027573,-0.0
 0009850,0.00001729,-0.00002022,0.00003959,-0.00001098,-0.00000403,0.00
 000292,0.00000783,0.00000787,-0.00000080,0.00000975,0.00000492,-0.0000
 0923,-0.00008043,0.00000901,0.00011956,-0.00002144,0.00001365,-0.00000
 464,-0.00010443,-0.00003745,0.00001249,-0.00015963,0.00001686,0.000129
 80,0.00008688,0.00008092,-0.00005143,-0.00000729,0.00000371,-0.0000023
 8,-0.00000233,0.00000059,-0.00000407,0.00003007,-0.00002099,0.00001090
 ,-0.01000190,0.00377256,-0.01795966,-0.08472617,0.02341525,-0.30873483
 ,0.00055004,-0.00090721,-0.00147337,-0.00108774,0.00003312,0.00194444,
 0.00067262,-0.00027755,0.00039531,0.00294145,-0.00274822,-0.00183611,0
 .09240699,-0.02463727,0.32676467,-0.00057014,0.00024315,0.00095073,-0.
 00045231,-0.00037240,-0.00000362,0.00023793,0.00020656,0.00003344,0.00
 033175,0.00061999,-0.00022730,0.00004277,0.00001534,0.00005934,-0.0000
 3244,-0.00001116,0.00001465,-0.00000640,-0.00000053,-0.00000290,-0.000
 00144,0.,-0.00000524,-0.00015254,-0.00009075,0.00019173,0.00001106,-0.
 00000808,-0.00002733,0.00003263,0.00001377,-0.00002211,-0.00003724,-0.
 00015108,0.00001895,-0.00005019,-0.00007597,-0.00003442,0.00000737,-0.
 00000082,0.00000672,-0.00002891,0.00000149,-0.00000047,-0.00002861,0.0
 0001013,-0.00000846,-0.00114323,0.00530597,-0.00245692,-0.00890644,0.0
 1030078,0.02182013,-0.13032522,0.06868018,0.10909931,0.00905379,-0.004
 30847,-0.00917079,0.00221893,0.00296007,-0.00268670,-0.00070373,-0.000
 21117,-0.00082291,-0.00039825,-0.00246393,-0.00005178,0.13156117,0.000
 33917,-0.00027430,-0.00056334,0.00027188,0.00026001,-0.00008211,-0.000
 16803,-0.00019625,0.00003301,-0.00018501,-0.00038905,0.00020630,-0.000
 03459,-0.00000347,-0.00001636,0.00001405,0.00000783,-0.00000802,0.0000
 0282,0.00000068,0.00000229,0.00000309,0.00000126,0.00000231,0.00003509
 ,0.00003211,-0.00011949,-0.00000168,0.00000684,0.00002281,0.00000942,-
 0.00001011,0.00001314,-0.00000458,0.00006891,0.00001332,0.00003776,0.0
 0005086,0.00002653,-0.00000556,0.00000230,-0.00000581,0.00001786,-0.00
 000345,0.00000084,0.00001908,-0.00000420,0.00000423,0.00533009,0.00459
 431,0.00055035,0.00724021,-0.00198720,-0.01318801,0.06878731,-0.090794
 96,-0.08695733,-0.00154551,0.00500542,0.00353732,0.00295813,0.00563945
 ,0.00045295,-0.00007697,-0.00074801,0.00064663,-0.00235109,-0.00280573
 ,0.00060115,-0.07790419,0.08503774,-0.00024127,0.00015707,0.00020891,0
 .00005623,0.00006176,-0.00002962,-0.00000651,-0.00005889,0.00001708,-0
 .00005926,-0.00003541,0.00004655,-0.00001223,-0.00000848,-0.00000914,0
 .00000751,0.00000239,-0.00000430,0.00000391,0.00000085,0.00000008,0.00
 000038,-0.00000015,0.00000135,0.00004312,0.00002081,-0.00003883,-0.000
 00824,0.00000563,0.00000433,-0.00002985,-0.00001120,0.00001244,0.00002
 861,-0.00000443,-0.00000563,0.00001489,0.00000791,-0.00001838,0.000001
 07,-0.00000076,-0.00000036,-0.00000009,0.00000023,-0.00000090,0.000006
 54,-0.00000498,-0.00000005,-0.00193381,0.00052619,0.00130105,-0.005022
 27,0.00358818,0.00818354,0.10903680,-0.08702591,-0.21949686,0.01757061
 ,-0.01308973,-0.01652808,-0.00324887,0.00078499,-0.00431844,-0.0007653
 6,0.00057791,-0.00015721,0.00061992,0.00015253,0.00071003,-0.11708138,
 0.09447159,0.23003520,-0.00035071,-0.00050353,0.00001350,-0.00004623,-
 0.00019898,0.00004218,0.00006995,0.00012053,-0.00001757,0.00008484,0.0
 0021508,-0.00012123,0.00002613,0.00001641,0.00001085,-0.00001361,-0.00
 000539,0.00000796,-0.00000731,-0.00000203,0.00000015,-0.00000245,-0.00
 000117,-0.00000237,-0.00006180,-0.00004235,0.00008076,0.00001968,-0.00
 001247,-0.00001186,0.00005667,0.00002791,-0.00002009,-0.00002766,-0.00
 001633,0.00000114,-0.00003997,-0.00003502,0.00000566,0.00000049,0.0000
 0015,0.00000275,-0.00000729,0.00000088,-0.00000022,-0.00001714,0.00000
 782,-0.00000156,0.00015213,-0.00068613,0.00030044,0.00296018,0.0026329
 6,-0.00215043,-0.00419710,0.00485985,0.00076975,-0.25344559,0.12985857
 ,-0.04694021,-0.00917430,0.00726972,-0.00577311,0.00198895,0.00386280,
 0.00260841,-0.00033096,0.00026909,0.00002526,-0.00061058,-0.00221693,0
 .00000892,0.26417394,-0.00050324,-0.00074916,0.00013690,0.00019264,0.0
 0005718,0.00000831,-0.00004367,-0.00006857,0.00001136,-0.00018032,-0.0
 0003349,0.00000914,-0.00001540,-0.00001641,0.00000553,0.00000682,0.000
 00311,-0.00000585,0.00000882,0.00000290,-0.00000064,0.00000300,0.00000
 091,0.00000019,0.00006490,0.00002824,-0.00004378,-0.00001843,0.0000117
 1,0.00000572,-0.00006647,-0.00003230,0.00001950,0.00001662,0.00003824,
 -0.00000825,-0.00000876,-0.00000520,0.00000580,-0.00000081,0.00000022,
 -0.00000098,0.00000539,-0.00000142,-0.00000019,-0.00000074,0.00000222,
 -0.00000248,-0.00066459,-0.00058993,-0.00019206,0.00264728,0.00586359,
 0.00004814,0.00200391,0.00208997,-0.00089609,0.12978825,-0.11673163,0.
 02585526,0.01031046,-0.00249375,0.00418645,0.00378920,0.00495959,-0.00
 288593,0.00014873,0.00000161,-0.00005708,-0.00214215,-0.00276902,0.000
 54717,-0.14356262,0.11342290,0.00001368,0.00011445,0.00026323,-0.00003
 128,-0.00001949,-0.00000092,0.00000372,0.00002660,0.00001181,0.0000595
 0,0.00002966,-0.00005553,0.00000099,-0.00000889,0.00002233,-0.00000419
 ,-0.00000078,0.00000011,0.00000447,0.00000232,-0.00000148,0.00000315,0
 .00000203,-0.00000170,-0.00000395,0.00000333,0.00002802,-0.00001754,0.
 00000902,-0.00000439,-0.00004240,-0.00002802,0.00000183,-0.00002596,-0
 .00001061,0.00001156,-0.00000045,-0.00000288,-0.00000343,0.00000018,0.
 00000095,-0.00000016,-0.00000180,-0.00000023,0.00000006,-0.00000049,-0
 .00000017,-0.00000157,0.00031584,-0.00020843,-0.00128174,-0.00156799,-
 0.00036092,-0.00512418,-0.02596241,0.01582771,-0.00052098,-0.04700004,
 0.02590851,-0.07073483,0.02102845,-0.01253973,0.00899850,0.00199480,-0
 .00249934,-0.00308232,-0.00124623,0.00073443,-0.00022168,0.00074083,0.
 00009407,0.00109098,0.05099026,-0.02724180,0.06948024,-0.00037983,-0.0
 0013722,-0.00108835,-0.00042067,-0.00031080,0.00009079,0.00022924,0.00
 015208,-0.00006949,0.00038016,0.00052381,-0.00042232,0.00004555,0.0000
 2340,0.00006251,-0.00003597,-0.00001199,0.00001639,-0.00000871,-0.0000
 0179,-0.00000212,-0.00000188,0.00000076,-0.00000474,-0.00017225,-0.000
 10136,0.00022378,0.00001621,-0.00001129,-0.00002373,0.00006133,0.00002
 408,-0.00001884,-0.00004454,-0.00007328,0.00000079,-0.00008175,-0.0000
 6592,0.00005436,-0.00000335,-0.00000004,0.00000363,-0.00000785,-0.0000
 0299,0.00000468,-0.00003726,0.00001680,0.00000275,-0.00149790,0.005709
 50,-0.00020885,-0.00093735,0.00011683,0.00052871,0.00075192,0.00450785
 ,0.00234157,0.00929291,-0.00147109,0.01686958,-0.08243258,0.01751403,-
 0.08576982,-0.00382360,0.00154230,-0.02644934,-0.00022442,-0.00058094,
 -0.00002859,0.00027389,-0.00005138,0.00081527,-0.00056538,-0.00235584,
 -0.00029464,0.08014469,0.00016811,0.00001680,0.00067659,0.00020692,0.0
 0021013,0.00001042,-0.00013566,-0.00015889,0.00001516,-0.00013184,-0.0
 0023884,0.00021142,-0.00002979,0.00000659,-0.00002483,0.00001269,0.000
 00796,-0.00000565,-0.00000245,0.00000012,0.00000319,0.00000277,0.00000
 102,0.00000214,-0.00000382,0.00000922,-0.00014914,0.00000750,0.0000019
 1,0.00001793,0.00004883,0.00001011,0.00000663,-0.00001157,-0.00001588,
 0.00000667,0.00005917,0.00003332,-0.00003508,0.00000149,0.00000078,-0.
 00000251,0.00000313,0.00000033,-0.00000401,0.00002151,-0.00001387,-0.0
 0000068,0.00565956,0.00403681,-0.00019528,0.00030946,-0.00111170,-0.00
 029544,0.00449703,0.00445440,-0.00266152,-0.00478341,0.00523285,-0.012
 63987,0.01791389,-0.04720026,0.02131241,0.00440866,0.00272860,0.015605
 81,-0.00056696,-0.00077365,0.00013013,-0.00017939,0.00014533,-0.000648
 13,-0.00228412,-0.00275822,0.00078116,-0.02275183,0.03806257,0.0000341
 9,-0.00008688,-0.00021992,-0.00024385,-0.00024059,0.00000757,0.0001204
 4,0.00016513,-0.00002629,0.00019761,0.00028833,-0.00020905,0.00003414,
 0.00001712,0.00002388,-0.00002005,-0.00000772,0.00000993,-0.00000778,-
 0.00000201,-0.00000107,-0.00000285,-0.00000101,-0.00000323,-0.00008770
 ,-0.00005237,0.00012727,0.00001553,-0.00001167,-0.00001699,0.00005254,
 0.00002312,-0.00002696,-0.00002310,-0.00003320,0.00000332,-0.00004974,
 -0.00004109,0.00001782,-0.00000052,-0.00000013,0.00000319,-0.00000808,
 0.00000015,0.00000142,-0.00002150,0.00001176,-0.00000101,-0.00086927,-
 0.00014519,0.00199580,0.00048954,-0.00016939,0.00047676,0.00297357,-0.
 00292982,-0.00157600,-0.00996446,0.00381808,-0.01681406,-0.08565457,0.
 02147399,-0.31103566,0.00050044,-0.00101548,-0.00184565,-0.00002471,0.
 00014222,-0.00009291,-0.00044833,0.00018353,-0.00099464,0.00043306,0.0
 0034234,0.00092530,0.09260545,-0.02237941,0.32854942,-0.00032606,-0.00
 249599,0.00022202,0.00084172,0.00052907,0.00007607,-0.00040953,-0.0002
 5265,-0.00005125,-0.00019228,-0.00025116,-0.00067435,-0.00021332,-0.00
 001689,0.00012594,0.00003112,0.00001079,-0.00003708,0.00003786,-0.0000
 0070,-0.00000444,0.00005307,0.00002700,-0.00001683,-0.00086390,-0.0003
 1652,-0.00001671,-0.00007143,0.00045068,0.00013109,-0.00052466,-0.0006
 1833,-0.00024614,0.00007211,0.00021174,0.00007430,-0.00004206,-0.00000
 189,0.00013977,-0.00001196,0.00000928,-0.00001139,0.00004587,-0.000019
 79,0.00000989,-0.00000201,0.00001234,-0.00000475,0.00731973,-0.0034088
 6,-0.00876435,0.00212264,0.00289080,-0.00274402,-0.00067046,-0.0002577
 7,-0.00070749,-0.00165930,0.00566838,-0.00255662,-0.00894730,0.0108557
 6,0.02200109,-0.12270378,0.06839991,0.10306405,0.00042457,-0.00018623,
 -0.00038154,-0.00029747,-0.00053403,0.00018980,-0.00061817,0.00056951,
 0.00104499,-0.00048958,-0.00245835,-0.00001187,0.12707434,-0.00235051,
 -0.00265456,0.00062319,0.00037205,0.00000549,0.00024207,-0.00015637,0.
 00010535,-0.00006417,0.00000264,0.00062985,-0.00081653,0.00003091,-0.0
 0016441,0.00015570,-0.00002323,0.00000366,-0.00000877,0.00007010,0.000
 02919,-0.00001386,0.00000395,0.00000978,-0.00000427,0.00017935,0.00009
 262,0.00016698,0.00033096,-0.00012927,0.00010473,-0.00113642,-0.000150
 48,-0.00005923,0.00000783,-0.00002122,0.00006762,-0.00011374,-0.000096
 76,0.00007535,-0.00000637,0.00000574,0.00000104,-0.00000311,-0.0000121
 0,0.00000653,-0.00004484,0.00003307,-0.00001527,-0.00017968,0.00431072
 ,0.00353505,0.00272816,0.00521786,0.00043590,-0.00029241,-0.00065404,0
 .00047906,0.00546311,0.00419727,0.00079932,0.00690819,-0.00268914,-0.0
 1295136,0.06936250,-0.09551917,-0.09268172,-0.00005798,0.00018042,0.00
 013001,-0.00051376,-0.00082106,0.00000617,0.00041519,-0.00017972,-0.00
 062126,-0.00229484,-0.00264453,0.00059039,-0.07868139,0.09101202,0.001
 27855,-0.00006906,0.00193943,-0.00012951,0.00054441,-0.00020473,-0.000
 16325,-0.00012391,0.00007026,-0.00038700,-0.00003137,-0.00021652,-0.00
 006554,-0.00013762,0.00020344,0.00000456,0.00001096,-0.00002742,0.0000
 7474,0.00003310,-0.00001734,0.00004146,0.00001767,-0.00000841,0.000179
 74,0.00012168,-0.00026989,-0.00004880,0.00015536,0.00008246,-0.0007060
 7,-0.00042589,0.00047419,-0.00001115,0.00003527,0.00000759,-0.00003220
 ,-0.00003667,0.00004403,0.00000194,0.00000916,-0.00001190,0.00002112,-
 0.00000703,0.00000268,-0.00000780,0.00000747,-0.00002186,0.01697475,-0
 .01366371,-0.01709972,-0.00326885,0.00051319,-0.00448922,-0.00088948,0
 .00063710,-0.00030287,-0.00190628,0.00022902,0.00145446,-0.00489437,0.
 00367676,0.00794244,0.10327249,-0.09132613,-0.21663595,0.00086577,-0.0
 0060561,-0.00104742,0.00020103,0.00004299,-0.00000264,-0.00025901,0.00
 014361,0.00021492,0.00071946,0.00027483,0.00072514,-0.11089217,0.09989
 214,0.22727068,0.00284357,0.00303009,-0.00158724,-0.19324490,0.1044404
 4,-0.03617491,-0.05009132,-0.00205385,-0.00651951,-0.00347677,-0.00149
 356,0.00191429,-0.00027932,-0.00007272,-0.00041415,0.00020682,0.000068
 83,-0.00007265,0.00003578,-0.00000317,0.00000295,0.00001332,0.00000436
 ,0.00002201,0.00099084,0.00048032,-0.00143693,0.00000793,0.00011901,0.
 00001652,0.00003862,-0.00005130,0.00006963,0.00026354,0.00074747,-0.00
 005210,-0.00267537,-0.00203452,0.00044443,-0.00183665,-0.00197566,-0.0
 0027760,-0.00030297,0.00012652,0.00017259,0.00012770,-0.00086998,0.000
 06347,0.00076373,-0.00100417,-0.00020228,0.00005512,0.00001300,-0.0001
 5901,-0.00000303,0.00007425,0.00001018,-0.00002119,0.00001391,-0.00000
 115,-0.00002657,0.00002835,-0.00006421,-0.00017118,0.00014927,0.000139
 83,0.00000817,-0.00004172,0.00000327,-0.00002616,0.00001359,0.00000556
 ,-0.00001670,0.00000750,-0.00000151,-0.00003103,0.00001848,-0.00001813
 ,0.00002022,-0.00002031,0.00002588,0.24682781,0.02590768,-0.01297022,0
 .00842708,0.09382839,-0.13156565,0.02472071,-0.01902391,0.02084295,-0.
 00246142,0.00277403,-0.00041493,-0.00054366,0.00004594,-0.00000005,0.0
 0009573,-0.00005252,-0.00001623,0.00000902,-0.00003531,0.00000336,0.00
 002784,0.00000196,-0.00001102,-0.00000251,-0.00043589,-0.00007480,0.00
 040026,0.00005235,-0.00005928,0.00009022,0.00008179,0.00003263,-0.0000
 9901,-0.00020940,0.00019134,-0.00018226,-0.00001160,-0.00013691,-0.000
 53592,-0.00138706,0.00049721,0.00051212,-0.00049733,-0.00039661,-0.000
 31086,-0.00001119,0.00064708,0.00011948,-0.00292137,-0.00398200,0.0016
 3923,0.00031516,0.00008759,0.00030738,0.00015481,0.00019740,-0.0000410
 0,0.00019710,-0.00017742,0.00006598,0.00022358,0.00025628,0.00007921,0
 .00077469,-0.00025863,-0.00021570,-0.00010045,-0.00010276,-0.00009066,
 0.00007644,-0.00004624,-0.00002328,0.00001011,-0.00005357,0.00000830,0
 .00009117,-0.00004301,0.00005983,-0.00013470,-0.00009658,0.00008229,-0
 .09971445,0.12765007,-0.00688430,0.00398752,0.01085854,-0.03453638,0.0
 2761680,-0.06800037,-0.00267983,-0.00110647,0.01801218,-0.00016171,-0.
 00091709,-0.00220882,0.00003454,0.00003784,-0.00008237,0.00001254,0.00
 000311,-0.00000717,-0.00000200,0.00000005,-0.00000526,-0.00001435,-0.0
 0000731,-0.00000710,0.00003650,0.00010489,0.00007751,-0.00004201,0.000
 03638,-0.00001242,-0.00002484,-0.00001872,0.00000430,0.00038412,0.0008
 3509,-0.00015673,-0.00060889,0.00041874,0.00132249,0.00034463,-0.00024
 884,0.00007061,0.00002916,-0.00025419,-0.00021715,0.00004548,-0.000230
 93,-0.00015910,0.00029792,0.00179211,0.00548298,-0.00094055,0.00047572
 ,-0.00049441,-0.00026437,-0.00007544,0.00019492,-0.00005118,0.00005219
 ,0.00003539,0.00012924,0.00005540,0.00017561,0.00078185,-0.00046406,0.
 00003066,0.00003017,0.00008856,-0.00006068,-0.00008621,0.00003511,-0.0
 0000646,-0.00000338,0.00000972,-0.00001398,0.00004112,-0.00001295,-0.0
 0000339,0.00004196,-0.00007481,-0.00007581,0.04409078,-0.03213840,0.03
 524604\\-0.00000071,0.00000194,-0.00000054,-0.00000288,-0.00000093,-0.
 00000084,-0.00000272,0.00000221,0.00000208,0.00000071,-0.00000226,0.00
 000197,-0.00000221,-0.00000058,-0.00000008,-0.00000246,-0.00000572,-0.
 00000531,-0.00000336,-0.00001154,-0.00000693,-0.00000173,-0.00000289,-
 0.00000513,0.00000351,-0.00000534,-0.00000301,-0.00000345,-0.00000323,
 -0.00000465,-0.00000449,-0.00000074,-0.00000140,0.00000632,-0.00000236
 ,-0.00000084,-0.00000057,-0.00000498,-0.00000405,-0.00000049,-0.000003
 03,-0.00000335,0.00000080,-0.00000410,-0.00000307,0.00000030,-0.000003
 86,-0.00000264,0.00000045,0.00000240,0.00000098,0.00000358,0.00000372,
 0.00000240,0.00000359,0.00000556,0.00000438,0.00000183,0.00000592,0.00
 000492,0.00000018,0.00000484,0.00000416,-0.00000155,0.00000196,0.00000
 233,0.00000344,0.00000248,0.00000237,0.00000547,0.00000628,0.00000501,
 0.00000272,0.00000763,0.00000609,-0.00000143,0.00000552,0.00000430,-0.
 00000133,0.00000271,0.00000174,-0.00000352,-0.00000158,-0.00000088\\\@


 ALL MY ATTEMPTS TO ADAPT THE THEORETICAL FOUNDATIONS OF PHYSICS
 TO THESE NEW NOTIONS FAILED COMPLETELY. IT WAS AS IF THE GROUND HAD
 BEEN PULLED OUT FROM UNDER ONE WITH NO FIRM FOUNDATION TO BE SEEN ANYWHERE,
 UPON WHICH ONE COULD HAVE BUILT.  -- A.EINSTEIN
 Job cpu time:       0 days 13 hours 44 minutes 19.7 seconds.
 Elapsed time:       0 days  0 hours 51 minutes 34.2 seconds.
 File lengths (MBytes):  RWF=    881 Int=      0 D2E=      0 Chk=     36 Scr=      1
 Normal termination of Gaussian 16 at Sun Mar 28 12:43:12 2021.
