 Entering Gaussian System, Link 0=g16
 Initial command:
 /apps/gaussian/16/A.03/g16/l1.exe "/beegfs/scratch/user/q/tla25/Gau-92002.inp" -scrdir="/beegfs/scratch/user/q/tla25/"
 Entering Link 1 = /apps/gaussian/16/A.03/g16/l1.exe PID=     92003.
  
 Copyright (c) 1988,1990,1992,1993,1995,1998,2003,2009,2016,
            Gaussian, Inc.  All Rights Reserved.
  
 This is part of the Gaussian(R) 16 program.  It is based on
 the Gaussian(R) 09 system (copyright 2009, Gaussian, Inc.),
 the Gaussian(R) 03 system (copyright 2003, Gaussian, Inc.),
 the Gaussian(R) 98 system (copyright 1998, Gaussian, Inc.),
 the Gaussian(R) 94 system (copyright 1995, Gaussian, Inc.),
 the Gaussian 92(TM) system (copyright 1992, Gaussian, Inc.),
 the Gaussian 90(TM) system (copyright 1990, Gaussian, Inc.),
 the Gaussian 88(TM) system (copyright 1988, Gaussian, Inc.),
 the Gaussian 86(TM) system (copyright 1986, Carnegie Mellon
 University), and the Gaussian 82(TM) system (copyright 1983,
 Carnegie Mellon University). Gaussian is a federally registered
 trademark of Gaussian, Inc.
  
 This software contains proprietary and confidential information,
 including trade secrets, belonging to Gaussian, Inc.
  
 This software is provided under written license and may be
 used, copied, transmitted, or stored only in accord with that
 written license.
  
 The following legend is applicable only to US Government
 contracts under FAR:
  
                    RESTRICTED RIGHTS LEGEND
  
 Use, reproduction and disclosure by the US Government is
 subject to restrictions as set forth in subparagraphs (a)
 and (c) of the Commercial Computer Software - Restricted
 Rights clause in FAR 52.227-19.
  
 Gaussian, Inc.
 340 Quinnipiac St., Bldg. 40, Wallingford CT 06492
  
  
 ---------------------------------------------------------------
 Warning -- This program may not be used in any manner that
 competes with the business of Gaussian, Inc. or will provide
 assistance to any competitor of Gaussian, Inc.  The licensee
 of this program is prohibited from giving any competitor of
 Gaussian, Inc. access to this program.  By using this program,
 the user acknowledges that Gaussian, Inc. is engaged in the
 business of creating and licensing software in the field of
 computational chemistry and represents and warrants to the
 licensee that it is not a competitor of Gaussian, Inc. and that
 it will not use this program in any manner prohibited above.
 ---------------------------------------------------------------
  

 Cite this work as:
 Gaussian 16, Revision A.03,
 M. J. Frisch, G. W. Trucks, H. B. Schlegel, G. E. Scuseria, 
 M. A. Robb, J. R. Cheeseman, G. Scalmani, V. Barone, 
 G. A. Petersson, H. Nakatsuji, X. Li, M. Caricato, A. V. Marenich, 
 J. Bloino, B. G. Janesko, R. Gomperts, B. Mennucci, H. P. Hratchian, 
 J. V. Ortiz, A. F. Izmaylov, J. L. Sonnenberg, D. Williams-Young, 
 F. Ding, F. Lipparini, F. Egidi, J. Goings, B. Peng, A. Petrone, 
 T. Henderson, D. Ranasinghe, V. G. Zakrzewski, J. Gao, N. Rega, 
 G. Zheng, W. Liang, M. Hada, M. Ehara, K. Toyota, R. Fukuda, 
 J. Hasegawa, M. Ishida, T. Nakajima, Y. Honda, O. Kitao, H. Nakai, 
 T. Vreven, K. Throssell, J. A. Montgomery, Jr., J. E. Peralta, 
 F. Ogliaro, M. J. Bearpark, J. J. Heyd, E. N. Brothers, K. N. Kudin, 
 V. N. Staroverov, T. A. Keith, R. Kobayashi, J. Normand, 
 K. Raghavachari, A. P. Rendell, J. C. Burant, S. S. Iyengar, 
 J. Tomasi, M. Cossi, J. M. Millam, M. Klene, C. Adamo, R. Cammi, 
 J. W. Ochterski, R. L. Martin, K. Morokuma, O. Farkas, 
 J. B. Foresman, and D. J. Fox, Gaussian, Inc., Wallingford CT, 2016.
 
 ******************************************
 Gaussian 16:  ES64L-G16RevA.03 25-Dec-2016
                27-Mar-2021 
 ******************************************
 %nprocshared=16
 Will use up to   16 processors via shared memory.
 %mem=48GB
 ----------------------------------------------------------------------
 # wB97XD def2tzvp, opt=(ts, noeigen, calcfc, maxcycles=70, maxstep=3),
  freq=noraman, scrf=(iefpcm, solvent=water)
 ----------------------------------------------------------------------
 1/5=1,6=70,8=3,10=4,11=1,18=20,26=3,38=1/1,3;
 2/9=110,12=2,17=6,18=5,40=1/2;
 3/5=44,7=101,11=2,25=1,30=1,70=2201,71=2,72=1,74=-58,140=1/1,2,3;
 4//1;
 5/5=2,38=5,53=1/2;
 8/6=4,10=90,11=11/1;
 11/6=1,8=1,9=11,15=111,16=1/1,2,10;
 10/6=1,13=1/2;
 6/7=2,8=2,9=2,10=2,28=1/1;
 7/10=1,18=20,25=1/1,2,3,16;
 1/5=1,6=70,8=3,10=4,11=1,18=20,26=3/3(2);
 2/9=110/2;
 99//99;
 2/9=110/2;
 3/5=44,7=101,11=2,25=1,30=1,70=2205,71=1,72=1,74=-58/1,2,3;
 4/5=5,16=3,69=1/1;
 5/5=2,38=5,53=1/2;
 7//1,2,3,16;
 1/5=1,6=70,8=3,11=1,18=20,26=3/3(-5);
 2/9=110/2;
 6/7=2,8=2,9=2,10=2,19=2,28=1/1;
 99/9=1/99;
 ------------------------
 0_iteration/TS-639-0.out
 ------------------------
 Symbolic Z-matrix:
 Charge =  0 Multiplicity = 1
 C                    -0.9428   -1.2633   -0.08991 
 C                     0.475    -1.621    -0.15471 
 O                     0.8563   -2.6565   -0.68911 
 C                    -1.5194   -0.0209    0.12839 
 C                    -1.2938   -0.4699    2.89079 
 H                    -1.808    -0.7883    3.79589 
 H                    -0.7522   -1.3189    2.47219 
 H                    -0.587     0.319     3.13639 
 N                    -2.2442    0.0002    1.88669 
 H                    -3.0011   -0.6667    1.77899 
 H                    -2.668     0.8909    2.12389 
 Br                   -3.2776    0.3128   -0.76081 
 C                    -0.7008    1.2293   -0.03361 
 C                    -0.0718    1.4156   -1.26811 
 C                     0.71      2.5295   -1.50251 
 C                     0.8734    3.4896   -0.51161 
 C                     0.2414    3.3235    0.70709 
 C                    -0.5459    2.2034    0.94539 
 H                    -0.1949    0.6691   -2.04171 
 H                     1.1956    2.6485   -2.46221 
 H                     1.4891    4.3609   -0.69251 
 H                     0.3556    4.0647    1.48709 
 H                    -1.0195    2.1184    1.91119 
 Cl                   -2.0062   -2.6492   -0.22831 
 N                     1.3621   -0.7546    0.44349 
 C                     2.7378   -0.6268    0.21019 
 C                     3.5453   -1.6548   -0.27371 
 C                     4.9023   -1.4298   -0.46201 
 C                     5.4752   -0.2029   -0.16601 
 C                     4.6702    0.8168    0.32499 
 C                     3.3152    0.6103    0.50799 
 H                     0.9597    0.0439    0.90139 
 H                     3.109    -2.6144   -0.49751 
 H                     5.5184   -2.236    -0.84101 
 H                     6.5351   -0.0417   -0.31341 
 H                     5.0969    1.7836    0.56089 
 H                     2.6895    1.4166    0.87549 
 
 Add virtual bond connecting atoms N9         and C4         Dist= 3.59D+00.

 GradGradGradGradGradGradGradGradGradGradGradGradGradGradGradGradGradGrad
 Berny optimization.
 Initialization pass.
                           ----------------------------
                           !    Initial Parameters    !
                           ! (Angstroms and Degrees)  !
 --------------------------                            --------------------------
 ! Name  Definition              Value          Derivative Info.                !
 --------------------------------------------------------------------------------
 ! R1    R(1,2)                  1.4637         calculate D2E/DX2 analytically  !
 ! R2    R(1,4)                  1.387          calculate D2E/DX2 analytically  !
 ! R3    R(1,24)                 1.7523         calculate D2E/DX2 analytically  !
 ! R4    R(2,3)                  1.2261         calculate D2E/DX2 analytically  !
 ! R5    R(2,25)                 1.3767         calculate D2E/DX2 analytically  !
 ! R6    R(4,9)                  1.9019         calculate D2E/DX2 analytically  !
 ! R7    R(4,12)                 1.9983         calculate D2E/DX2 analytically  !
 ! R8    R(4,13)                 1.5031         calculate D2E/DX2 analytically  !
 ! R9    R(5,6)                  1.0886         calculate D2E/DX2 analytically  !
 ! R10   R(5,7)                  1.0906         calculate D2E/DX2 analytically  !
 ! R11   R(5,8)                  1.0873         calculate D2E/DX2 analytically  !
 ! R12   R(5,9)                  1.4603         calculate D2E/DX2 analytically  !
 ! R13   R(9,10)                 1.0145         calculate D2E/DX2 analytically  !
 ! R14   R(9,11)                 1.0145         calculate D2E/DX2 analytically  !
 ! R15   R(13,14)                1.398          calculate D2E/DX2 analytically  !
 ! R16   R(13,18)                1.3897         calculate D2E/DX2 analytically  !
 ! R17   R(14,15)                1.3809         calculate D2E/DX2 analytically  !
 ! R18   R(14,19)                1.0821         calculate D2E/DX2 analytically  !
 ! R19   R(15,16)                1.3894         calculate D2E/DX2 analytically  !
 ! R20   R(15,20)                1.0821         calculate D2E/DX2 analytically  !
 ! R21   R(16,17)                1.3828         calculate D2E/DX2 analytically  !
 ! R22   R(16,21)                1.0821         calculate D2E/DX2 analytically  !
 ! R23   R(17,18)                1.3897         calculate D2E/DX2 analytically  !
 ! R24   R(17,22)                1.082          calculate D2E/DX2 analytically  !
 ! R25   R(18,23)                1.079          calculate D2E/DX2 analytically  !
 ! R26   R(25,26)                1.4012         calculate D2E/DX2 analytically  !
 ! R27   R(25,32)                1.0046         calculate D2E/DX2 analytically  !
 ! R28   R(26,27)                1.3939         calculate D2E/DX2 analytically  !
 ! R29   R(26,31)                1.3973         calculate D2E/DX2 analytically  !
 ! R30   R(27,28)                1.3884         calculate D2E/DX2 analytically  !
 ! R31   R(27,33)                1.0776         calculate D2E/DX2 analytically  !
 ! R32   R(28,29)                1.386          calculate D2E/DX2 analytically  !
 ! R33   R(28,34)                1.0831         calculate D2E/DX2 analytically  !
 ! R34   R(29,30)                1.3888         calculate D2E/DX2 analytically  !
 ! R35   R(29,35)                1.0822         calculate D2E/DX2 analytically  !
 ! R36   R(30,31)                1.3828         calculate D2E/DX2 analytically  !
 ! R37   R(30,36)                1.0828         calculate D2E/DX2 analytically  !
 ! R38   R(31,37)                1.0847         calculate D2E/DX2 analytically  !
 ! A1    A(2,1,4)              128.9456         calculate D2E/DX2 analytically  !
 ! A2    A(2,1,24)             113.02           calculate D2E/DX2 analytically  !
 ! A3    A(4,1,24)             117.9433         calculate D2E/DX2 analytically  !
 ! A4    A(1,2,3)              121.7996         calculate D2E/DX2 analytically  !
 ! A5    A(1,2,25)             116.8158         calculate D2E/DX2 analytically  !
 ! A6    A(3,2,25)             121.3654         calculate D2E/DX2 analytically  !
 ! A7    A(1,4,9)              108.2926         calculate D2E/DX2 analytically  !
 ! A8    A(1,4,12)             116.4438         calculate D2E/DX2 analytically  !
 ! A9    A(1,4,13)             120.1109         calculate D2E/DX2 analytically  !
 ! A10   A(9,4,12)              94.2565         calculate D2E/DX2 analytically  !
 ! A11   A(9,4,13)             107.3344         calculate D2E/DX2 analytically  !
 ! A12   A(12,4,13)            106.9964         calculate D2E/DX2 analytically  !
 ! A13   A(6,5,7)              109.0275         calculate D2E/DX2 analytically  !
 ! A14   A(6,5,8)              109.3578         calculate D2E/DX2 analytically  !
 ! A15   A(6,5,9)              111.0046         calculate D2E/DX2 analytically  !
 ! A16   A(7,5,8)              109.1904         calculate D2E/DX2 analytically  !
 ! A17   A(7,5,9)              108.0532         calculate D2E/DX2 analytically  !
 ! A18   A(8,5,9)              110.1701         calculate D2E/DX2 analytically  !
 ! A19   A(4,9,5)              112.5865         calculate D2E/DX2 analytically  !
 ! A20   A(4,9,10)             100.3045         calculate D2E/DX2 analytically  !
 ! A21   A(4,9,11)             112.649          calculate D2E/DX2 analytically  !
 ! A22   A(5,9,10)             110.3001         calculate D2E/DX2 analytically  !
 ! A23   A(5,9,11)             113.1878         calculate D2E/DX2 analytically  !
 ! A24   A(10,9,11)            106.8755         calculate D2E/DX2 analytically  !
 ! A25   A(4,13,14)            116.8111         calculate D2E/DX2 analytically  !
 ! A26   A(4,13,18)            124.5952         calculate D2E/DX2 analytically  !
 ! A27   A(14,13,18)           118.589          calculate D2E/DX2 analytically  !
 ! A28   A(13,14,15)           120.805          calculate D2E/DX2 analytically  !
 ! A29   A(13,14,19)           119.2225         calculate D2E/DX2 analytically  !
 ! A30   A(15,14,19)           119.9695         calculate D2E/DX2 analytically  !
 ! A31   A(14,15,16)           120.1942         calculate D2E/DX2 analytically  !
 ! A32   A(14,15,20)           119.5578         calculate D2E/DX2 analytically  !
 ! A33   A(16,15,20)           120.2479         calculate D2E/DX2 analytically  !
 ! A34   A(15,16,17)           119.4583         calculate D2E/DX2 analytically  !
 ! A35   A(15,16,21)           120.2711         calculate D2E/DX2 analytically  !
 ! A36   A(17,16,21)           120.2706         calculate D2E/DX2 analytically  !
 ! A37   A(16,17,18)           120.4547         calculate D2E/DX2 analytically  !
 ! A38   A(16,17,22)           120.3167         calculate D2E/DX2 analytically  !
 ! A39   A(18,17,22)           119.2285         calculate D2E/DX2 analytically  !
 ! A40   A(13,18,17)           120.4844         calculate D2E/DX2 analytically  !
 ! A41   A(13,18,23)           121.7627         calculate D2E/DX2 analytically  !
 ! A42   A(17,18,23)           117.7512         calculate D2E/DX2 analytically  !
 ! A43   A(2,25,26)            128.1468         calculate D2E/DX2 analytically  !
 ! A44   A(2,25,32)            116.1139         calculate D2E/DX2 analytically  !
 ! A45   A(26,25,32)           113.3703         calculate D2E/DX2 analytically  !
 ! A46   A(25,26,27)           124.0077         calculate D2E/DX2 analytically  !
 ! A47   A(25,26,31)           116.806          calculate D2E/DX2 analytically  !
 ! A48   A(27,26,31)           119.1788         calculate D2E/DX2 analytically  !
 ! A49   A(26,27,28)           119.5896         calculate D2E/DX2 analytically  !
 ! A50   A(26,27,33)           119.6217         calculate D2E/DX2 analytically  !
 ! A51   A(28,27,33)           120.7887         calculate D2E/DX2 analytically  !
 ! A52   A(27,28,29)           121.231          calculate D2E/DX2 analytically  !
 ! A53   A(27,28,34)           118.8683         calculate D2E/DX2 analytically  !
 ! A54   A(29,28,34)           119.8992         calculate D2E/DX2 analytically  !
 ! A55   A(28,29,30)           119.0668         calculate D2E/DX2 analytically  !
 ! A56   A(28,29,35)           120.5038         calculate D2E/DX2 analytically  !
 ! A57   A(30,29,35)           120.4293         calculate D2E/DX2 analytically  !
 ! A58   A(29,30,31)           120.3384         calculate D2E/DX2 analytically  !
 ! A59   A(29,30,36)           120.2761         calculate D2E/DX2 analytically  !
 ! A60   A(31,30,36)           119.3838         calculate D2E/DX2 analytically  !
 ! A61   A(26,31,30)           120.5918         calculate D2E/DX2 analytically  !
 ! A62   A(26,31,37)           119.4675         calculate D2E/DX2 analytically  !
 ! A63   A(30,31,37)           119.9372         calculate D2E/DX2 analytically  !
 ! D1    D(4,1,2,3)           -160.5295         calculate D2E/DX2 analytically  !
 ! D2    D(4,1,2,25)            21.0471         calculate D2E/DX2 analytically  !
 ! D3    D(24,1,2,3)            23.0582         calculate D2E/DX2 analytically  !
 ! D4    D(24,1,2,25)         -155.3652         calculate D2E/DX2 analytically  !
 ! D5    D(2,1,4,9)           -106.9667         calculate D2E/DX2 analytically  !
 ! D6    D(2,1,4,12)           148.4538         calculate D2E/DX2 analytically  !
 ! D7    D(2,1,4,13)            16.7075         calculate D2E/DX2 analytically  !
 ! D8    D(24,1,4,9)            69.2952         calculate D2E/DX2 analytically  !
 ! D9    D(24,1,4,12)          -35.2842         calculate D2E/DX2 analytically  !
 ! D10   D(24,1,4,13)         -167.0305         calculate D2E/DX2 analytically  !
 ! D11   D(1,2,25,26)         -159.5164         calculate D2E/DX2 analytically  !
 ! D12   D(1,2,25,32)            1.7011         calculate D2E/DX2 analytically  !
 ! D13   D(3,2,25,26)           22.0529         calculate D2E/DX2 analytically  !
 ! D14   D(3,2,25,32)         -176.7297         calculate D2E/DX2 analytically  !
 ! D15   D(1,4,9,5)             49.3344         calculate D2E/DX2 analytically  !
 ! D16   D(1,4,9,10)           -67.8947         calculate D2E/DX2 analytically  !
 ! D17   D(1,4,9,11)           178.8037         calculate D2E/DX2 analytically  !
 ! D18   D(12,4,9,5)           168.999          calculate D2E/DX2 analytically  !
 ! D19   D(12,4,9,10)           51.77           calculate D2E/DX2 analytically  !
 ! D20   D(12,4,9,11)          -61.5317         calculate D2E/DX2 analytically  !
 ! D21   D(13,4,9,5)           -81.7141         calculate D2E/DX2 analytically  !
 ! D22   D(13,4,9,10)          161.0568         calculate D2E/DX2 analytically  !
 ! D23   D(13,4,9,11)           47.7552         calculate D2E/DX2 analytically  !
 ! D24   D(1,4,13,14)           55.8911         calculate D2E/DX2 analytically  !
 ! D25   D(1,4,13,18)         -124.9148         calculate D2E/DX2 analytically  !
 ! D26   D(9,4,13,14)         -179.9765         calculate D2E/DX2 analytically  !
 ! D27   D(9,4,13,18)           -0.7824         calculate D2E/DX2 analytically  !
 ! D28   D(12,4,13,14)         -79.7983         calculate D2E/DX2 analytically  !
 ! D29   D(12,4,13,18)          99.3958         calculate D2E/DX2 analytically  !
 ! D30   D(6,5,9,4)           -159.5745         calculate D2E/DX2 analytically  !
 ! D31   D(6,5,9,10)           -48.4468         calculate D2E/DX2 analytically  !
 ! D32   D(6,5,9,11)            71.2342         calculate D2E/DX2 analytically  !
 ! D33   D(7,5,9,4)            -40.0721         calculate D2E/DX2 analytically  !
 ! D34   D(7,5,9,10)            71.0556         calculate D2E/DX2 analytically  !
 ! D35   D(7,5,9,11)          -169.2634         calculate D2E/DX2 analytically  !
 ! D36   D(8,5,9,4)             79.1403         calculate D2E/DX2 analytically  !
 ! D37   D(8,5,9,10)          -169.732          calculate D2E/DX2 analytically  !
 ! D38   D(8,5,9,11)           -50.051          calculate D2E/DX2 analytically  !
 ! D39   D(4,13,14,15)        -179.4263         calculate D2E/DX2 analytically  !
 ! D40   D(4,13,14,19)          -0.0544         calculate D2E/DX2 analytically  !
 ! D41   D(18,13,14,15)          1.3292         calculate D2E/DX2 analytically  !
 ! D42   D(18,13,14,19)       -179.2989         calculate D2E/DX2 analytically  !
 ! D43   D(4,13,18,17)         179.4932         calculate D2E/DX2 analytically  !
 ! D44   D(4,13,18,23)          -0.0381         calculate D2E/DX2 analytically  !
 ! D45   D(14,13,18,17)         -1.3259         calculate D2E/DX2 analytically  !
 ! D46   D(14,13,18,23)        179.1427         calculate D2E/DX2 analytically  !
 ! D47   D(13,14,15,16)         -0.5055         calculate D2E/DX2 analytically  !
 ! D48   D(13,14,15,20)        179.3901         calculate D2E/DX2 analytically  !
 ! D49   D(19,14,15,16)       -179.8727         calculate D2E/DX2 analytically  !
 ! D50   D(19,14,15,20)          0.0229         calculate D2E/DX2 analytically  !
 ! D51   D(14,15,16,17)         -0.3393         calculate D2E/DX2 analytically  !
 ! D52   D(14,15,16,21)        179.7436         calculate D2E/DX2 analytically  !
 ! D53   D(20,15,16,17)        179.7658         calculate D2E/DX2 analytically  !
 ! D54   D(20,15,16,21)         -0.1512         calculate D2E/DX2 analytically  !
 ! D55   D(15,16,17,18)          0.3391         calculate D2E/DX2 analytically  !
 ! D56   D(15,16,17,22)       -179.7347         calculate D2E/DX2 analytically  !
 ! D57   D(21,16,17,18)       -179.7438         calculate D2E/DX2 analytically  !
 ! D58   D(21,16,17,22)          0.1824         calculate D2E/DX2 analytically  !
 ! D59   D(16,17,18,13)          0.5082         calculate D2E/DX2 analytically  !
 ! D60   D(16,17,18,23)       -179.942          calculate D2E/DX2 analytically  !
 ! D61   D(22,17,18,13)       -179.4188         calculate D2E/DX2 analytically  !
 ! D62   D(22,17,18,23)          0.131          calculate D2E/DX2 analytically  !
 ! D63   D(2,25,26,27)         -25.7577         calculate D2E/DX2 analytically  !
 ! D64   D(2,25,26,31)         155.2523         calculate D2E/DX2 analytically  !
 ! D65   D(32,25,26,27)        172.6001         calculate D2E/DX2 analytically  !
 ! D66   D(32,25,26,31)         -6.39           calculate D2E/DX2 analytically  !
 ! D67   D(25,26,27,28)       -179.5237         calculate D2E/DX2 analytically  !
 ! D68   D(25,26,27,33)          0.4983         calculate D2E/DX2 analytically  !
 ! D69   D(31,26,27,28)         -0.5562         calculate D2E/DX2 analytically  !
 ! D70   D(31,26,27,33)        179.4658         calculate D2E/DX2 analytically  !
 ! D71   D(25,26,31,30)        179.1106         calculate D2E/DX2 analytically  !
 ! D72   D(25,26,31,37)         -1.5632         calculate D2E/DX2 analytically  !
 ! D73   D(27,26,31,30)          0.0695         calculate D2E/DX2 analytically  !
 ! D74   D(27,26,31,37)        179.3957         calculate D2E/DX2 analytically  !
 ! D75   D(26,27,28,29)          0.5998         calculate D2E/DX2 analytically  !
 ! D76   D(26,27,28,34)       -179.8415         calculate D2E/DX2 analytically  !
 ! D77   D(33,27,28,29)       -179.4225         calculate D2E/DX2 analytically  !
 ! D78   D(33,27,28,34)          0.1362         calculate D2E/DX2 analytically  !
 ! D79   D(27,28,29,30)         -0.1434         calculate D2E/DX2 analytically  !
 ! D80   D(27,28,29,35)        179.742          calculate D2E/DX2 analytically  !
 ! D81   D(34,28,29,30)       -179.6976         calculate D2E/DX2 analytically  !
 ! D82   D(34,28,29,35)          0.1878         calculate D2E/DX2 analytically  !
 ! D83   D(28,29,30,31)         -0.3522         calculate D2E/DX2 analytically  !
 ! D84   D(28,29,30,36)       -179.8809         calculate D2E/DX2 analytically  !
 ! D85   D(35,29,30,31)        179.7623         calculate D2E/DX2 analytically  !
 ! D86   D(35,29,30,36)          0.2336         calculate D2E/DX2 analytically  !
 ! D87   D(29,30,31,26)          0.3892         calculate D2E/DX2 analytically  !
 ! D88   D(29,30,31,37)       -178.9338         calculate D2E/DX2 analytically  !
 ! D89   D(36,30,31,26)        179.9221         calculate D2E/DX2 analytically  !
 ! D90   D(36,30,31,37)          0.5991         calculate D2E/DX2 analytically  !
 --------------------------------------------------------------------------------
 Trust Radius=3.00D-02 FncErr=1.00D-07 GrdErr=1.00D-06 EigMax=2.50D+02 EigMin=1.00D-04
 Number of steps in this run=     70 maximum allowed number of steps=    222.
 Search for a saddle point of order  1.
 GradGradGradGradGradGradGradGradGradGradGradGradGradGradGradGradGradGrad

                          Input orientation:                          
 ---------------------------------------------------------------------
 Center     Atomic      Atomic             Coordinates (Angstroms)
 Number     Number       Type             X           Y           Z
 ---------------------------------------------------------------------
      1          6           0       -0.942800   -1.263300   -0.089910
      2          6           0        0.475000   -1.621000   -0.154710
      3          8           0        0.856300   -2.656500   -0.689110
      4          6           0       -1.519400   -0.020900    0.128390
      5          6           0       -1.293800   -0.469900    2.890790
      6          1           0       -1.808000   -0.788300    3.795890
      7          1           0       -0.752200   -1.318900    2.472190
      8          1           0       -0.587000    0.319000    3.136390
      9          7           0       -2.244200    0.000200    1.886690
     10          1           0       -3.001100   -0.666700    1.778990
     11          1           0       -2.668000    0.890900    2.123890
     12         35           0       -3.277600    0.312800   -0.760810
     13          6           0       -0.700800    1.229300   -0.033610
     14          6           0       -0.071800    1.415600   -1.268110
     15          6           0        0.710000    2.529500   -1.502510
     16          6           0        0.873400    3.489600   -0.511610
     17          6           0        0.241400    3.323500    0.707090
     18          6           0       -0.545900    2.203400    0.945390
     19          1           0       -0.194900    0.669100   -2.041710
     20          1           0        1.195600    2.648500   -2.462210
     21          1           0        1.489100    4.360900   -0.692510
     22          1           0        0.355600    4.064700    1.487090
     23          1           0       -1.019500    2.118400    1.911190
     24         17           0       -2.006200   -2.649200   -0.228310
     25          7           0        1.362100   -0.754600    0.443490
     26          6           0        2.737800   -0.626800    0.210190
     27          6           0        3.545300   -1.654800   -0.273710
     28          6           0        4.902300   -1.429800   -0.462010
     29          6           0        5.475200   -0.202900   -0.166010
     30          6           0        4.670200    0.816800    0.324990
     31          6           0        3.315200    0.610300    0.507990
     32          1           0        0.959700    0.043900    0.901390
     33          1           0        3.109000   -2.614400   -0.497510
     34          1           0        5.518400   -2.236000   -0.841010
     35          1           0        6.535100   -0.041700   -0.313410
     36          1           0        5.096900    1.783600    0.560890
     37          1           0        2.689500    1.416600    0.875490
 ---------------------------------------------------------------------
                    Distance matrix (angstroms):
                    1          2          3          4          5
     1  C    0.000000
     2  C    1.463662   0.000000
     3  O    2.353042   1.226064   0.000000
     4  C    1.386968   2.572566   3.641242   0.000000
     5  C    3.104393   3.705233   4.713792   2.807730   0.000000
     6  H    4.009194   4.638181   5.541109   3.758025   1.088571
     7  H    2.569781   2.915114   3.790813   2.786898   1.090577
     8  H    3.610994   3.965196   5.056794   3.167486   1.087313
     9  N    2.682727   3.766915   4.827619   1.901946   1.460298
    10  H    2.843469   4.090618   4.993031   2.310189   2.046876
    11  H    3.538051   4.623863   5.737395   2.476425   2.080466
    12  Br   2.895771   4.264850   5.090286   1.998324   4.228743
    13  C    2.504953   3.085673   4.237179   1.503113   3.433809
    14  C    3.053408   3.280181   4.216469   2.471698   4.727033
    15  C    4.371787   4.370176   5.251440   3.759601   5.684426
    16  C    5.105533   5.138515   6.148686   4.296359   5.652497
    17  C    4.803777   5.024475   6.171538   3.823653   4.638455
    18  C    3.639696   4.108344   5.315673   2.561777   3.389759
    19  H    2.846585   3.042054   3.740877   2.634338   5.180199
    20  H    5.050024   4.906368   5.603752   4.605229   6.676537
    21  H    6.157020   6.091039   7.045875   5.378208   6.627307
    22  H    5.706168   5.919202   7.082448   4.696149   5.025285
    23  H    3.930163   4.525990   5.751509   2.829290   2.781035
    24  Cl   1.752339   2.686813   2.899361   2.696696   3.871130
    25  N    2.419887   1.376749   2.270647   2.990091   3.622725
    26  C    3.747267   2.498369   2.910063   4.300879   4.843969
    27  C    4.508891   3.072791   2.899428   5.336900   5.902113
    28  C    5.859298   4.442069   4.233968   6.600894   7.110157
    29  C    6.505456   5.197416   5.256237   7.003158   7.432004
    30  C    6.000394   4.875724   5.257190   6.249123   6.618778
    31  C    4.690248   3.672139   4.260425   4.890385   5.299759
    32  H    2.512161   2.030314   3.135688   2.597627   3.049584
    33  H    4.290535   2.835897   2.261225   5.342292   5.955175
    34  H    6.577036   5.126901   4.683489   7.441575   7.965646
    35  H    7.580320   6.264518   6.263154   8.066634   8.470061
    36  H    6.795963   5.784924   6.265754   6.871587   7.165734
    37  H    4.616001   3.897735   4.732731   4.509923   4.846338
                    6          7          8          9         10
     6  H    0.000000
     7  H    1.774382   0.000000
     8  H    1.775358   1.775153   0.000000
     9  N    2.111172   2.075789   2.099927   0.000000
    10  H    2.346521   2.442016   2.939731   1.014521   0.000000
    11  H    2.520892   2.945304   2.383860   1.014503   1.629733
    12  Br   4.912806   4.415017   4.735772   2.859177   2.736139
    13  C    4.467849   3.574213   3.300075   2.753239   3.488798
    14  C    5.789271   4.682978   4.568105   4.083558   4.711856
    15  C    6.739522   5.722452   5.299803   5.158617   5.895439
    16  C    6.636632   5.887895   5.049097   5.258059   6.126453
    17  C    5.536030   5.065047   3.951552   4.314393   5.252092
    18  C    4.320708   3.844512   2.890179   2.936726   3.867864
    19  H    6.229260   4.963670   5.204712   4.481003   4.925126
    20  H    7.745775   6.624386   6.320487   6.144807   6.825732
    21  H    7.584910   6.877418   5.942022   6.293291   7.179622
    22  H    5.793387   5.583976   4.199875   4.841363   5.808510
    23  H    3.552848   3.493022   2.219462   2.446888   3.420672
    24  Cl   4.438065   3.261122   4.705905   3.398410   2.991552
    25  N    4.614028   2.984011   3.493325   3.957013   4.563858
    26  C    5.792031   4.216129   4.528960   5.293780   5.949597
    27  C    6.780139   5.110900   5.709691   6.397239   6.931470
    28  C    7.973040   6.371436   6.792584   7.657268   8.250341
    29  C    8.311699   6.854638   6.923041   7.990242   8.708949
    30  C    7.522670   6.210805   5.982468   7.135452   7.947561
    31  C    6.246083   4.911582   4.713863   5.760205   6.568243
    32  H    4.090336   2.693555   2.731883   3.352268   4.118625
    33  H    6.778260   5.040467   5.955710   6.416954   6.805094
    34  H    8.790496   7.151139   7.721635   8.526365   9.050358
    35  H    9.330117   7.905413   7.921839   9.050873   9.783040
    36  H    8.047207   6.891338   6.409756   7.670072   8.547827
    37  H    5.798088   4.677361   4.129388   5.231645   6.126939
                   11         12         13         14         15
    11  H    0.000000
    12  Br   3.004548   0.000000
    13  C    2.939251   2.829963   0.000000
    14  C    4.303630   3.427926   1.397977   0.000000
    15  C    5.219834   4.622211   2.416308   1.380916   0.000000
    16  C    5.122560   5.233064   2.795630   2.401494   1.389379
    17  C    4.048391   4.858231   2.412893   2.763981   2.394234
    18  C    2.759498   3.734658   1.389714   2.396869   2.770531
    19  H    4.849499   3.357185   2.145280   1.082069   2.137912
    20  H    6.248910   5.325390   3.392427   2.133593   1.082124
    21  H    6.103646   6.254055   3.877722   3.382679   2.148749
    22  H    4.429523   5.685943   3.386444   3.845976   3.379371
    23  H    2.066289   3.936850   2.162017   3.391167   3.848834
    24  Cl   4.301527   3.267026   4.096918   4.620139   5.985003
    25  N    4.666168   4.910855   2.901558   3.113746   3.872656
    26  C    5.931976   6.165284   3.915165   3.774999   4.124020
    27  C    7.129809   7.117632   5.138584   4.847639   5.201658
    28  C    8.329584   8.368793   6.216838   5.786862   5.859529
    29  C    8.529463   8.788131   6.341270   5.882463   5.653262
    30  C    7.555840   8.037444   5.398740   5.038164   4.685753
    31  C    6.203914   6.720370   4.099359   3.908300   3.809528
    32  H    3.920730   4.559597   2.244250   2.766276   3.466885
    33  H    7.247937   7.030397   5.431741   5.191552   5.764107
    34  H    9.251231   9.158189   7.165099   6.690810   6.802079
    35  H    9.565941   9.829289   7.352005   6.832738   6.477408
    36  H    7.970794   8.604789   5.854400   5.495100   4.904985
    37  H    5.526090   6.285072   3.515064   3.495683   3.288138
                   16         17         18         19         20
    16  C    0.000000
    17  C    1.382839   0.000000
    18  C    2.406568   1.389695   0.000000
    19  H    3.381966   3.846050   3.376395   0.000000
    20  H    2.148512   3.377956   3.852619   2.455267   0.000000
    21  H    1.082116   2.142857   3.388030   4.276165   2.479979
    22  H    2.143282   1.082044   2.137891   4.928040   4.278807
    23  H    3.366485   2.119432   1.079023   4.290204   4.930953
    24  Cl   6.786547   6.449793   5.201709   4.192892   6.580840
    25  N    4.377702   4.237494   3.555578   3.259968   4.477935
    26  C    4.576214   4.699340   4.396958   3.918053   4.499744
    27  C    5.801767   6.054849   5.754114   4.745043   5.369266
    28  C    6.358851   6.759042   6.698045   5.734307   5.862845
    29  C    5.910208   6.371065   6.578688   6.035617   5.631873
    30  C    4.717992   5.103314   5.432794   5.412234   4.816270
    31  C    3.910542   4.104795   4.199688   4.338805   4.179599
    32  H    3.725166   3.362958   2.632909   3.222703   4.260680
    33  H    6.500532   6.703197   6.217029   4.907309   5.934582
    34  H    7.380178   7.819935   7.724975   6.520973   6.721103
    35  H    6.675643   7.209483   7.534296   6.984637   6.353328
    36  H    4.679599   5.095934   5.671443   6.001565   5.010721
    37  H    3.085384   3.107703   3.330428   4.169961   3.858699
                   21         22         23         24         25
    21  H    0.000000
    22  H    2.474513   0.000000
    23  H    4.254543   2.420505   0.000000
    24  Cl   7.846917   7.321007   5.317993   0.000000
    25  N    5.241657   5.032673   4.010024   3.922534   0.000000
    26  C    5.220275   5.414381   4.954475   5.175705   1.401182
    27  C    6.371185   6.781392   6.312545   5.640039   2.468015
    28  C    6.725717   7.393308   7.299967   7.019183   3.716025
    29  C    6.082308   6.866983   7.203077   7.871443   4.194455
    30  C    4.869841   5.524048   6.048378   7.542786   3.664269
    31  C    4.340834   4.653036   4.799267   6.283612   2.383634
    32  H    4.632199   4.107897   3.039816   4.162400   1.004590
    33  H    7.163582   7.492011   6.726496   5.122397   2.719558
    34  H    7.731520   8.471917   8.323433   7.560803   4.595576
    35  H    6.707363   7.634824   8.166202   8.930851   5.276462
    36  H    4.607571   5.342395   6.272619   8.409910   4.517186
    37  H    3.545206   3.582398   3.914317   6.308621   2.581225
                   26         27         28         29         30
    26  C    0.000000
    27  C    1.393915   0.000000
    28  C    2.404521   1.388355   0.000000
    29  C    2.795456   2.417463   1.386043   0.000000
    30  C    2.414815   2.780764   2.391746   1.388846   0.000000
    31  C    1.397316   2.407214   2.760760   2.404406   1.382807
    32  H    2.022186   3.309346   4.424336   4.646503   3.833722
    33  H    2.142238   1.077625   2.149526   3.394720   3.858366
    34  H    3.380278   2.133717   1.083134   2.142659   3.376179
    35  H    3.877626   3.397436   2.148241   1.082174   2.149983
    36  H    3.390925   3.863498   3.377889   2.148878   1.082785
    37  H    2.149521   3.389182   3.845437   3.386388   2.141491
                   31         32         33         34         35
    31  C    0.000000
    32  H    2.454374   0.000000
    33  H    3.384116   3.693639   0.000000
    34  H    3.843867   5.386617   2.463004   0.000000
    35  H    3.386378   5.706851   4.288454   2.475276   0.000000
    36  H    2.133984   4.500991   4.941089   4.277870   2.482849
    37  H    1.084747   2.208435   4.279027   4.928543   4.281210
                   36         37
    36  H    0.000000
    37  H    2.455450   0.000000
 Stoichiometry    C16H16BrClN2O
 Framework group  C1[X(C16H16BrClN2O)]
 Deg. of freedom   105
 Full point group                 C1      NOp   1
 Largest Abelian subgroup         C1      NOp   1
 Largest concise Abelian subgroup C1      NOp   1
                         Standard orientation:                         
 ---------------------------------------------------------------------
 Center     Atomic      Atomic             Coordinates (Angstroms)
 Number     Number       Type             X           Y           Z
 ---------------------------------------------------------------------
      1          6           0       -0.942801   -1.263300   -0.089908
      2          6           0        0.474999   -1.621000   -0.154708
      3          8           0        0.856299   -2.656500   -0.689108
      4          6           0       -1.519402   -0.020901    0.128392
      5          6           0       -1.293801   -0.469901    2.890792
      6          1           0       -1.808001   -0.788301    3.795892
      7          1           0       -0.752201   -1.318900    2.472192
      8          1           0       -0.587002    0.319000    3.136392
      9          7           0       -2.244202    0.000199    1.886692
     10          1           0       -3.001101   -0.666701    1.778992
     11          1           0       -2.668002    0.890899    2.123892
     12         35           0       -3.277602    0.312799   -0.760808
     13          6           0       -0.700802    1.229300   -0.033608
     14          6           0       -0.071802    1.415600   -1.268108
     15          6           0        0.709997    2.529500   -1.502508
     16          6           0        0.873397    3.489600   -0.511608
     17          6           0        0.241397    3.323500    0.707092
     18          6           0       -0.545902    2.203400    0.945392
     19          1           0       -0.194902    0.669100   -2.041708
     20          1           0        1.195597    2.648500   -2.462208
     21          1           0        1.489097    4.360901   -0.692508
     22          1           0        0.355597    4.064700    1.487092
     23          1           0       -1.019502    2.118400    1.911192
     24         17           0       -2.006201   -2.649201   -0.228308
     25          7           0        1.362099   -0.754599    0.443492
     26          6           0        2.737799   -0.626799    0.210192
     27          6           0        3.545299   -1.654799   -0.273708
     28          6           0        4.902299   -1.429798   -0.462008
     29          6           0        5.475198   -0.202898   -0.166008
     30          6           0        4.670198    0.816802    0.324992
     31          6           0        3.315198    0.610301    0.507992
     32          1           0        0.959698    0.043900    0.901392
     33          1           0        3.108999   -2.614399   -0.497508
     34          1           0        5.518399   -2.235998   -0.841008
     35          1           0        6.535098   -0.041697   -0.313408
     36          1           0        5.096898    1.783602    0.560892
     37          1           0        2.689498    1.416601    0.875492
 ---------------------------------------------------------------------
 Rotational constants (GHZ):           0.3699177           0.1717000           0.1391984
 Standard basis: def2TZVP (5D, 7F)
 There are   877 symmetry adapted cartesian basis functions of A   symmetry.
 There are   770 symmetry adapted basis functions of A   symmetry.
   770 basis functions,  1280 primitive gaussians,   877 cartesian basis functions
    93 alpha electrons       93 beta electrons
       nuclear repulsion energy      2315.0448298675 Hartrees.
 NAtoms=   37 NActive=   37 NUniq=   37 SFac= 1.00D+00 NAtFMM=   60 NAOKFM=F Big=F
 Integral buffers will be    131072 words long.
 Raffenetti 2 integral format.
 Two-electron integral symmetry is turned on.
 Nuclear repulsion after empirical dispersion term =     2315.0107592929 Hartrees.
 Force inversion solution in PCM.
 ------------------------------------------------------------------------------
 Polarizable Continuum Model (PCM)
 =================================
 Model                : PCM.
 Atomic radii         : UFF (Universal Force Field).
 Polarization charges : Total charges.
 Charge compensation  : None.
 Solution method      : Matrix inversion.
 Cavity type          : Scaled VdW (van der Waals Surface) (Alpha=1.100).
 Cavity algorithm     : GePol (No added spheres)
                        Default sphere list used, NSphG=   37.
                        Lebedev-Laikov grids with approx.  5.0 points / Ang**2.
                        Smoothing algorithm: York/Karplus (Gamma=1.0000).
                        Polarization charges: spherical gaussians, with
                                              point-specific exponents (IZeta= 3).
                        Self-potential: point-specific (ISelfS= 7).
                        Self-field    : sphere-specific E.n sum rule (ISelfD= 2).
 1st derivatives      : Analytical E(r).r(x)/FMM algorithm (CHGder, D1EAlg=3).
                        Cavity 1st derivative terms included.
 2nd derivatives      : Analytical E(r).r(xy)/FMM algorithm (CHGder, D2EAlg=3).
                        Cavity 2nd derivative terms included.
 Solvent              : Water, Eps=  78.355300 Eps(inf)=   1.777849
 ------------------------------------------------------------------------------
 One-electron integrals computed using PRISM.
   1 Symmetry operations used in ECPInt.
 ECPInt:  NShTT=   45753 NPrTT=  147721 LenC2=   41077 LenP2D=   92770.
 LDataN:  DoStor=T MaxTD1= 6 Len=  172
 NBasis=   770 RedAO= T EigKep=  5.77D-06  NBF=   770
 NBsUse=   770 1.00D-06 EigRej= -1.00D+00 NBFU=   770
 ExpMin= 9.52D-02 ExpMax= 5.65D+05 ExpMxC= 5.46D+03 IAcc=3 IRadAn=         5 AccDes= 0.00D+00
 Harris functional with IExCor= 4639 and IRadAn=       5 diagonalized for initial guess.
 HarFok:  IExCor= 4639 AccDes= 0.00D+00 IRadAn=         5 IDoV= 1 UseB2=F ITyADJ=14
 ICtDFT=  3500011 ScaDFX=  1.000000  1.000000  1.000000  1.000000
 FoFCou: FMM=F IPFlag=           0 FMFlag=      100000 FMFlg1=           0
         NFxFlg=           0 DoJE=T BraDBF=F KetDBF=T FulRan=T
         wScrn=  0.000000 ICntrl=       500 IOpCl=  0 I1Cent=   200000004 NGrid=           0
         NMat0=    1 NMatS0=      1 NMatT0=    0 NMatD0=    1 NMtDS0=    0 NMtDT0=    0
 Petite list used in FoFCou.
 Requested convergence on RMS density matrix=1.00D-08 within 128 cycles.
 Requested convergence on MAX density matrix=1.00D-06.
 Requested convergence on             energy=1.00D-06.
 No special actions if energy rises.
 Inv3:  Mode=1 IEnd=    22522800.
 Iteration    1 A*A^-1 deviation from unit magnitude is 4.77D-15 for   2710.
 Iteration    1 A*A^-1 deviation from orthogonality  is 1.65D-15 for   1666    204.
 Iteration    1 A^-1*A deviation from unit magnitude is 5.22D-15 for   2710.
 Iteration    1 A^-1*A deviation from orthogonality  is 2.10D-15 for   2728   2616.
 Error on total polarization charges =  0.01817
 SCF Done:  E(RwB97XD) =  -3838.48549078     A.U. after   15 cycles
            NFock= 15  Conv=0.95D-08     -V/T= 2.0021
 DoSCS=F DFT=T ScalE2(SS,OS)=  1.000000  1.000000
 Range of M.O.s used for correlation:     1   770
 NBasis=   770 NAE=    93 NBE=    93 NFC=     0 NFV=     0
 NROrb=    770 NOA=    93 NOB=    93 NVA=   677 NVB=   677

 **** Warning!!: The largest alpha MO coefficient is  0.66594961D+02

   1 Symmetry operations used in ECPInt.
 ECPInt:  NShTT=   45753 NPrTT=  147721 LenC2=   41077 LenP2D=   92770.
 LDataN:  DoStor=T MaxTD1= 7 Len=  274
 Number of processors reduced to  12 by ecpmxn.
 Symmetrizing basis deriv contribution to polar:
 IMax=3 JMax=2 DiffMx= 0.00D+00
 G2DrvN: will do    38 centers at a time, making    1 passes.
 Calling FoFCou, ICntrl=  3107 FMM=F I1Cent=   0 AccDes= 0.00D+00.
 NEqPCM:  Using equilibrium solvation (IEInf=0, Eps=  78.3553, EpsInf=   1.7778)
 G2PCM: DoFxE=T DoFxN=T DoGrad=T DoDP/DQ/DG/TGxP=FFFF NFrqRd=   0 IEInf=0 SqF1=F DoCFld=F IF1Alg=4.
 End of G2Drv F.D. properties file   721 does not exist.
 End of G2Drv F.D. properties file   722 does not exist.
 End of G2Drv F.D. properties file   788 does not exist.
          IDoAtm=1111111111111111111111111111111111111
 NEqPCM:  Using equilibrium solvation (IEInf=0, Eps=  78.3553, EpsInf=   1.7778)
          Differentiating once with respect to nuclear coordinates.
 CalDSu exits because no D1Ps are significant.
          There are   114 degrees of freedom in the 1st order CPHF.  IDoFFX=6 NUNeed=     0.
    108 vectors produced by pass  0 Test12= 6.30D-14 1.00D-09 XBig12= 1.34D-01 9.15D-02.
 AX will form   108 AO Fock derivatives at one time.
    108 vectors produced by pass  1 Test12= 6.30D-14 1.00D-09 XBig12= 4.60D-02 4.13D-02.
    108 vectors produced by pass  2 Test12= 6.30D-14 1.00D-09 XBig12= 1.31D-03 4.27D-03.
    108 vectors produced by pass  3 Test12= 6.30D-14 1.00D-09 XBig12= 2.25D-05 6.12D-04.
    108 vectors produced by pass  4 Test12= 6.30D-14 1.00D-09 XBig12= 2.99D-07 4.61D-05.
    108 vectors produced by pass  5 Test12= 6.30D-14 1.00D-09 XBig12= 3.32D-09 4.63D-06.
    108 vectors produced by pass  6 Test12= 6.30D-14 1.00D-09 XBig12= 3.12D-11 5.46D-07.
     62 vectors produced by pass  7 Test12= 6.30D-14 1.00D-09 XBig12= 2.44D-13 4.20D-08.
     17 vectors produced by pass  8 Test12= 6.30D-14 1.00D-09 XBig12= 9.94D-15 1.60D-08.
      8 vectors produced by pass  9 Test12= 6.30D-14 1.00D-09 XBig12= 4.38D-15 4.97D-09.
      6 vectors produced by pass 10 Test12= 6.30D-14 1.00D-09 XBig12= 3.43D-15 6.97D-09.
      4 vectors produced by pass 11 Test12= 6.30D-14 1.00D-09 XBig12= 1.04D-15 3.21D-09.
      4 vectors produced by pass 12 Test12= 6.30D-14 1.00D-09 XBig12= 8.21D-16 2.08D-09.
      4 vectors produced by pass 13 Test12= 6.30D-14 1.00D-09 XBig12= 1.39D-15 3.05D-09.
      3 vectors produced by pass 14 Test12= 6.30D-14 1.00D-09 XBig12= 1.02D-15 2.13D-09.
      1 vectors produced by pass 15 Test12= 6.30D-14 1.00D-09 XBig12= 3.02D-16 1.72D-09.
 InvSVY:  IOpt=1 It=  1 EMax= 5.00D-16
 Solved reduced A of dimension   865 with   114 vectors.
 End of Minotr F.D. properties file   721 does not exist.
 End of Minotr F.D. properties file   722 does not exist.
 End of Minotr F.D. properties file   788 does not exist.

 **********************************************************************

            Population analysis using the SCF density.

 **********************************************************************

 Orbital symmetries:
       Occupied  (A) (A) (A) (A) (A) (A) (A) (A) (A) (A) (A) (A)
                 (A) (A) (A) (A) (A) (A) (A) (A) (A) (A) (A) (A)
                 (A) (A) (A) (A) (A) (A) (A) (A) (A) (A) (A) (A)
                 (A) (A) (A) (A) (A) (A) (A) (A) (A) (A) (A) (A)
                 (A) (A) (A) (A) (A) (A) (A) (A) (A) (A) (A) (A)
                 (A) (A) (A) (A) (A) (A) (A) (A) (A) (A) (A) (A)
                 (A) (A) (A) (A) (A) (A) (A) (A) (A) (A) (A) (A)
                 (A) (A) (A) (A) (A) (A) (A) (A) (A)
       Virtual   (A) (A) (A) (A) (A) (A) (A) (A) (A) (A) (A) (A)
                 (A) (A) (A) (A) (A) (A) (A) (A) (A) (A) (A) (A)
                 (A) (A) (A) (A) (A) (A) (A) (A) (A) (A) (A) (A)
                 (A) (A) (A) (A) (A) (A) (A) (A) (A) (A) (A) (A)
                 (A) (A) (A) (A) (A) (A) (A) (A) (A) (A) (A) (A)
                 (A) (A) (A) (A) (A) (A) (A) (A) (A) (A) (A) (A)
                 (A) (A) (A) (A) (A) (A) (A) (A) (A) (A) (A) (A)
                 (A) (A) (A) (A) (A) (A) (A) (A) (A) (A) (A) (A)
                 (A) (A) (A) (A) (A) (A) (A) (A) (A) (A) (A) (A)
                 (A) (A) (A) (A) (A) (A) (A) (A) (A) (A) (A) (A)
                 (A) (A) (A) (A) (A) (A) (A) (A) (A) (A) (A) (A)
                 (A) (A) (A) (A) (A) (A) (A) (A) (A) (A) (A) (A)
                 (A) (A) (A) (A) (A) (A) (A) (A) (A) (A) (A) (A)
                 (A) (A) (A) (A) (A) (A) (A) (A) (A) (A) (A) (A)
                 (A) (A) (A) (A) (A) (A) (A) (A) (A) (A) (A) (A)
                 (A) (A) (A) (A) (A) (A) (A) (A) (A) (A) (A) (A)
                 (A) (A) (A) (A) (A) (A) (A) (A) (A) (A) (A) (A)
                 (A) (A) (A) (A) (A) (A) (A) (A) (A) (A) (A) (A)
                 (A) (A) (A) (A) (A) (A) (A) (A) (A) (A) (A) (A)
                 (A) (A) (A) (A) (A) (A) (A) (A) (A) (A) (A) (A)
                 (A) (A) (A) (A) (A) (A) (A) (A) (A) (A) (A) (A)
                 (A) (A) (A) (A) (A) (A) (A) (A) (A) (A) (A) (A)
                 (A) (A) (A) (A) (A) (A) (A) (A) (A) (A) (A) (A)
                 (A) (A) (A) (A) (A) (A) (A) (A) (A) (A) (A) (A)
                 (A) (A) (A) (A) (A) (A) (A) (A) (A) (A) (A) (A)
                 (A) (A) (A) (A) (A) (A) (A) (A) (A) (A) (A) (A)
                 (A) (A) (A) (A) (A) (A) (A) (A) (A) (A) (A) (A)
                 (A) (A) (A) (A) (A) (A) (A) (A) (A) (A) (A) (A)
                 (A) (A) (A) (A) (A) (A) (A) (A) (A) (A) (A) (A)
                 (A) (A) (A) (A) (A) (A) (A) (A) (A) (A) (A) (A)
                 (A) (A) (A) (A) (A) (A) (A) (A) (A) (A) (A) (A)
                 (A) (A) (A) (A) (A) (A) (A) (A) (A) (A) (A) (A)
                 (A) (A) (A) (A) (A) (A) (A) (A) (A) (A) (A) (A)
                 (A) (A) (A) (A) (A) (A) (A) (A) (A) (A) (A) (A)
                 (A) (A) (A) (A) (A) (A) (A) (A) (A) (A) (A) (A)
                 (A) (A) (A) (A) (A) (A) (A) (A) (A) (A) (A) (A)
                 (A) (A) (A) (A) (A) (A) (A) (A) (A) (A) (A) (A)
                 (A) (A) (A) (A) (A) (A) (A) (A) (A) (A) (A) (A)
                 (A) (A) (A) (A) (A) (A) (A) (A) (A) (A) (A) (A)
                 (A) (A) (A) (A) (A) (A) (A) (A) (A) (A) (A) (A)
                 (A) (A) (A) (A) (A) (A) (A) (A) (A) (A) (A) (A)
                 (A) (A) (A) (A) (A) (A) (A) (A) (A) (A) (A) (A)
                 (A) (A) (A) (A) (A) (A) (A) (A) (A) (A) (A) (A)
                 (A) (A) (A) (A) (A) (A) (A) (A) (A) (A) (A) (A)
                 (A) (A) (A) (A) (A) (A) (A) (A) (A) (A) (A) (A)
                 (A) (A) (A) (A) (A) (A) (A) (A) (A) (A) (A) (A)
                 (A) (A) (A) (A) (A) (A) (A) (A) (A) (A) (A) (A)
                 (A) (A) (A) (A) (A) (A) (A) (A) (A) (A) (A) (A)
                 (A) (A) (A) (A) (A) (A) (A) (A) (A) (A) (A) (A)
                 (A) (A) (A) (A) (A) (A) (A) (A) (A) (A) (A) (A)
                 (A) (A) (A) (A) (A) (A) (A) (A) (A) (A) (A) (A)
                 (A) (A) (A) (A) (A) (A) (A) (A) (A) (A) (A) (A)
                 (A) (A) (A) (A) (A) (A) (A) (A) (A) (A) (A) (A)
                 (A) (A) (A) (A) (A) (A) (A) (A) (A) (A) (A) (A)
                 (A) (A) (A) (A) (A) (A) (A) (A) (A) (A) (A) (A)
                 (A) (A) (A) (A) (A) (A) (A) (A) (A) (A) (A) (A)
                 (A) (A) (A) (A) (A)
 The electronic state is 1-A.
 Alpha  occ. eigenvalues -- -483.13184-101.69133 -62.68018 -56.47136 -56.46784
 Alpha  occ. eigenvalues --  -56.46769 -19.21390 -14.50392 -14.46715 -10.41498
 Alpha  occ. eigenvalues --  -10.39900 -10.33863 -10.32741 -10.32588 -10.32271
 Alpha  occ. eigenvalues --  -10.30937 -10.30419 -10.30210 -10.30116 -10.30059
 Alpha  occ. eigenvalues --  -10.29145 -10.29004 -10.28988 -10.28430 -10.28425
 Alpha  occ. eigenvalues --   -9.57661  -8.82108  -7.32300  -7.31446  -7.31432
 Alpha  occ. eigenvalues --   -6.64252  -6.63142  -6.63092  -2.74629  -2.74330
 Alpha  occ. eigenvalues --   -2.74290  -2.73392  -2.73392  -1.14620  -1.05970
 Alpha  occ. eigenvalues --   -1.04560  -0.99271  -0.96986  -0.95567  -0.91764
 Alpha  occ. eigenvalues --   -0.86922  -0.86627  -0.85507  -0.85234  -0.81906
 Alpha  occ. eigenvalues --   -0.80060  -0.75241  -0.72220  -0.72000  -0.71361
 Alpha  occ. eigenvalues --   -0.68481  -0.66015  -0.65203  -0.63070  -0.61802
 Alpha  occ. eigenvalues --   -0.59399  -0.58501  -0.58200  -0.57259  -0.55133
 Alpha  occ. eigenvalues --   -0.54533  -0.53804  -0.53248  -0.52579  -0.52111
 Alpha  occ. eigenvalues --   -0.51915  -0.51541  -0.50431  -0.49147  -0.48939
 Alpha  occ. eigenvalues --   -0.47854  -0.46868  -0.46044  -0.44846  -0.44383
 Alpha  occ. eigenvalues --   -0.43960  -0.42936  -0.42243  -0.40418  -0.39721
 Alpha  occ. eigenvalues --   -0.37851  -0.37494  -0.35268  -0.34850  -0.33917
 Alpha  occ. eigenvalues --   -0.33739  -0.30631  -0.27823
 Alpha virt. eigenvalues --    0.00305   0.03485   0.04070   0.05252   0.05809
 Alpha virt. eigenvalues --    0.07319   0.10237   0.12233   0.12419   0.13544
 Alpha virt. eigenvalues --    0.13819   0.14176   0.15315   0.15870   0.15996
 Alpha virt. eigenvalues --    0.17242   0.17443   0.17969   0.18503   0.18819
 Alpha virt. eigenvalues --    0.19174   0.19943   0.20555   0.21007   0.21388
 Alpha virt. eigenvalues --    0.22103   0.22436   0.23227   0.23675   0.24265
 Alpha virt. eigenvalues --    0.25448   0.25647   0.25799   0.26627   0.27143
 Alpha virt. eigenvalues --    0.27336   0.28061   0.28342   0.28907   0.29148
 Alpha virt. eigenvalues --    0.29788   0.30267   0.30433   0.30944   0.31155
 Alpha virt. eigenvalues --    0.31571   0.31767   0.32622   0.32819   0.33854
 Alpha virt. eigenvalues --    0.34230   0.34820   0.35463   0.35587   0.35642
 Alpha virt. eigenvalues --    0.36518   0.36784   0.37041   0.37296   0.38057
 Alpha virt. eigenvalues --    0.38873   0.39330   0.40015   0.40231   0.40872
 Alpha virt. eigenvalues --    0.41258   0.41881   0.42030   0.42451   0.42977
 Alpha virt. eigenvalues --    0.43644   0.44134   0.44392   0.44690   0.45475
 Alpha virt. eigenvalues --    0.45642   0.46208   0.46694   0.46950   0.47317
 Alpha virt. eigenvalues --    0.47754   0.48323   0.48961   0.49030   0.49702
 Alpha virt. eigenvalues --    0.49858   0.50492   0.51208   0.51402   0.51840
 Alpha virt. eigenvalues --    0.52064   0.52439   0.52855   0.53445   0.53951
 Alpha virt. eigenvalues --    0.54464   0.54539   0.55171   0.55630   0.55819
 Alpha virt. eigenvalues --    0.55832   0.57049   0.57090   0.57213   0.58125
 Alpha virt. eigenvalues --    0.58448   0.59397   0.60331   0.60986   0.61202
 Alpha virt. eigenvalues --    0.61402   0.62145   0.62968   0.63392   0.64159
 Alpha virt. eigenvalues --    0.64552   0.65219   0.65390   0.66789   0.67918
 Alpha virt. eigenvalues --    0.68280   0.69773   0.70114   0.70750   0.71489
 Alpha virt. eigenvalues --    0.71723   0.72099   0.73024   0.73997   0.74154
 Alpha virt. eigenvalues --    0.74778   0.75216   0.75282   0.76005   0.77471
 Alpha virt. eigenvalues --    0.77897   0.78534   0.79348   0.79623   0.80335
 Alpha virt. eigenvalues --    0.80425   0.80918   0.81476   0.82570   0.83628
 Alpha virt. eigenvalues --    0.83819   0.84732   0.85547   0.85612   0.86241
 Alpha virt. eigenvalues --    0.86703   0.86836   0.87218   0.87977   0.89254
 Alpha virt. eigenvalues --    0.90564   0.91310   0.91847   0.92411   0.92913
 Alpha virt. eigenvalues --    0.93411   0.94317   0.95569   0.96496   0.97068
 Alpha virt. eigenvalues --    0.97654   0.98982   0.99330   0.99734   1.00906
 Alpha virt. eigenvalues --    1.01270   1.02490   1.03486   1.04565   1.05915
 Alpha virt. eigenvalues --    1.06268   1.06559   1.08648   1.09124   1.09603
 Alpha virt. eigenvalues --    1.10797   1.12314   1.12800   1.12939   1.13649
 Alpha virt. eigenvalues --    1.15307   1.15743   1.16793   1.17287   1.18684
 Alpha virt. eigenvalues --    1.19308   1.19896   1.20826   1.22125   1.22646
 Alpha virt. eigenvalues --    1.23394   1.23822   1.26086   1.26877   1.27702
 Alpha virt. eigenvalues --    1.28578   1.29182   1.29313   1.30058   1.30841
 Alpha virt. eigenvalues --    1.31075   1.31929   1.32638   1.33003   1.33362
 Alpha virt. eigenvalues --    1.34256   1.34449   1.35530   1.36195   1.36548
 Alpha virt. eigenvalues --    1.38299   1.38723   1.39996   1.40402   1.41290
 Alpha virt. eigenvalues --    1.42336   1.42627   1.43889   1.44386   1.45056
 Alpha virt. eigenvalues --    1.45802   1.46351   1.47473   1.48165   1.49270
 Alpha virt. eigenvalues --    1.50103   1.50303   1.52486   1.53122   1.53538
 Alpha virt. eigenvalues --    1.54644   1.55469   1.55898   1.56660   1.57617
 Alpha virt. eigenvalues --    1.58054   1.58945   1.59569   1.61246   1.61746
 Alpha virt. eigenvalues --    1.62140   1.62997   1.63095   1.63350   1.63822
 Alpha virt. eigenvalues --    1.64289   1.65428   1.65755   1.66244   1.66881
 Alpha virt. eigenvalues --    1.68453   1.68824   1.69061   1.69820   1.70328
 Alpha virt. eigenvalues --    1.71012   1.71255   1.72554   1.73841   1.74314
 Alpha virt. eigenvalues --    1.74705   1.74967   1.75552   1.75814   1.76440
 Alpha virt. eigenvalues --    1.77065   1.77934   1.78377   1.79082   1.79533
 Alpha virt. eigenvalues --    1.79650   1.81168   1.81337   1.82092   1.82947
 Alpha virt. eigenvalues --    1.83206   1.84312   1.84798   1.85318   1.86304
 Alpha virt. eigenvalues --    1.87338   1.87738   1.88425   1.89640   1.90195
 Alpha virt. eigenvalues --    1.90559   1.92046   1.92674   1.93204   1.94119
 Alpha virt. eigenvalues --    1.95549   1.96172   1.97005   1.97134   1.98793
 Alpha virt. eigenvalues --    1.99815   2.00506   2.01786   2.02474   2.03131
 Alpha virt. eigenvalues --    2.03660   2.04073   2.05797   2.05995   2.06695
 Alpha virt. eigenvalues --    2.07990   2.09412   2.10299   2.11219   2.12241
 Alpha virt. eigenvalues --    2.12506   2.13344   2.13887   2.14766   2.15776
 Alpha virt. eigenvalues --    2.16850   2.17247   2.18919   2.19507   2.20445
 Alpha virt. eigenvalues --    2.20891   2.21569   2.22514   2.23470   2.23930
 Alpha virt. eigenvalues --    2.24996   2.25879   2.26327   2.27247   2.27949
 Alpha virt. eigenvalues --    2.29286   2.30032   2.31150   2.32341   2.32521
 Alpha virt. eigenvalues --    2.32681   2.33368   2.34488   2.36019   2.36441
 Alpha virt. eigenvalues --    2.37264   2.37938   2.39506   2.40699   2.41155
 Alpha virt. eigenvalues --    2.42244   2.42673   2.45985   2.46545   2.47241
 Alpha virt. eigenvalues --    2.47823   2.50084   2.51890   2.52796   2.53441
 Alpha virt. eigenvalues --    2.54086   2.55652   2.55929   2.57496   2.59263
 Alpha virt. eigenvalues --    2.60003   2.60546   2.61259   2.61741   2.62519
 Alpha virt. eigenvalues --    2.63795   2.65098   2.65634   2.65923   2.66765
 Alpha virt. eigenvalues --    2.67600   2.68706   2.69613   2.70264   2.70853
 Alpha virt. eigenvalues --    2.71573   2.73133   2.74163   2.74357   2.75260
 Alpha virt. eigenvalues --    2.75511   2.76434   2.76977   2.77308   2.77537
 Alpha virt. eigenvalues --    2.78097   2.78403   2.78956   2.79492   2.80567
 Alpha virt. eigenvalues --    2.81568   2.82316   2.83154   2.83440   2.84228
 Alpha virt. eigenvalues --    2.85052   2.85883   2.86161   2.86742   2.87702
 Alpha virt. eigenvalues --    2.88741   2.89362   2.89845   2.91084   2.91422
 Alpha virt. eigenvalues --    2.91996   2.92123   2.92738   2.93523   2.94041
 Alpha virt. eigenvalues --    2.94293   2.95924   2.96392   2.97137   2.97710
 Alpha virt. eigenvalues --    2.98141   2.99119   2.99913   3.00451   3.01935
 Alpha virt. eigenvalues --    3.02404   3.03505   3.04338   3.06385   3.07525
 Alpha virt. eigenvalues --    3.08570   3.09945   3.10579   3.12108   3.13026
 Alpha virt. eigenvalues --    3.14026   3.14945   3.15743   3.16347   3.17150
 Alpha virt. eigenvalues --    3.17285   3.18472   3.18989   3.20091   3.21252
 Alpha virt. eigenvalues --    3.21878   3.22170   3.22484   3.23698   3.23907
 Alpha virt. eigenvalues --    3.24507   3.25116   3.25596   3.26265   3.26765
 Alpha virt. eigenvalues --    3.27182   3.28108   3.29006   3.29834   3.30472
 Alpha virt. eigenvalues --    3.31319   3.32015   3.32969   3.33159   3.33813
 Alpha virt. eigenvalues --    3.34252   3.35166   3.35711   3.36138   3.36310
 Alpha virt. eigenvalues --    3.38242   3.39006   3.39837   3.40583   3.41071
 Alpha virt. eigenvalues --    3.42062   3.43405   3.43732   3.44088   3.44767
 Alpha virt. eigenvalues --    3.45267   3.45394   3.46375   3.46651   3.47442
 Alpha virt. eigenvalues --    3.48359   3.49787   3.50768   3.51904   3.52612
 Alpha virt. eigenvalues --    3.53011   3.53091   3.54345   3.54754   3.55685
 Alpha virt. eigenvalues --    3.56936   3.58213   3.58371   3.59100   3.59417
 Alpha virt. eigenvalues --    3.59682   3.59993   3.61666   3.61976   3.62666
 Alpha virt. eigenvalues --    3.63154   3.63724   3.64316   3.67665   3.68125
 Alpha virt. eigenvalues --    3.69724   3.70181   3.70980   3.71399   3.72770
 Alpha virt. eigenvalues --    3.75811   3.76315   3.77086   3.77376   3.78181
 Alpha virt. eigenvalues --    3.79093   3.82013   3.82822   3.83753   3.84843
 Alpha virt. eigenvalues --    3.87365   3.88414   3.89449   3.91596   3.92815
 Alpha virt. eigenvalues --    3.93222   3.93899   3.96930   4.00095   4.01427
 Alpha virt. eigenvalues --    4.02353   4.03886   4.04709   4.06831   4.07876
 Alpha virt. eigenvalues --    4.10263   4.10841   4.12170   4.13600   4.14189
 Alpha virt. eigenvalues --    4.15605   4.16847   4.17930   4.18753   4.19072
 Alpha virt. eigenvalues --    4.19806   4.21014   4.22803   4.23665   4.24025
 Alpha virt. eigenvalues --    4.25455   4.26281   4.27508   4.28641   4.29171
 Alpha virt. eigenvalues --    4.29979   4.30419   4.31537   4.32687   4.33416
 Alpha virt. eigenvalues --    4.34020   4.34463   4.35046   4.36655   4.37471
 Alpha virt. eigenvalues --    4.37902   4.39715   4.41330   4.42065   4.42408
 Alpha virt. eigenvalues --    4.43298   4.44801   4.45946   4.48748   4.51347
 Alpha virt. eigenvalues --    4.53456   4.56146   4.57646   4.57873   4.58962
 Alpha virt. eigenvalues --    4.64684   4.66917   4.68076   4.72586   4.75737
 Alpha virt. eigenvalues --    4.75955   4.77592   4.78436   4.79365   4.80473
 Alpha virt. eigenvalues --    4.82076   4.83506   4.84677   4.88813   4.92132
 Alpha virt. eigenvalues --    4.93285   4.95582   4.96184   4.97676   4.98847
 Alpha virt. eigenvalues --    4.99566   5.00262   5.01940   5.04592   5.10474
 Alpha virt. eigenvalues --    5.13949   5.15539   5.16218   5.17487   5.19453
 Alpha virt. eigenvalues --    5.20991   5.22563   5.24650   5.25588   5.26612
 Alpha virt. eigenvalues --    5.30000   5.31612   5.33476   5.34324   5.36684
 Alpha virt. eigenvalues --    5.39537   5.41047   5.42852   5.48084   5.48357
 Alpha virt. eigenvalues --    5.49067   5.51785   5.53638   5.59619   5.60191
 Alpha virt. eigenvalues --    5.62137   5.65539   5.69079   5.71315   5.77054
 Alpha virt. eigenvalues --    5.87488   5.89458   6.00405   6.08800   6.21113
 Alpha virt. eigenvalues --    6.23161   6.47304   6.51568   6.73288   6.89297
 Alpha virt. eigenvalues --    6.94014   7.19864   7.23370   7.77044  10.86740
 Alpha virt. eigenvalues --   10.98133  11.47733  22.24015  22.30118  22.50984
 Alpha virt. eigenvalues --   22.61032  22.72180  22.72735  22.73702  22.76915
 Alpha virt. eigenvalues --   22.87265  22.88662  22.95942  22.96650  22.98537
 Alpha virt. eigenvalues --   23.35266  23.37438  23.53320  25.94449  32.24549
 Alpha virt. eigenvalues --   32.84819  44.09678
          Condensed to atoms (all electrons):
               1          2          3          4          5          6
     1  C    5.949616   0.182554  -0.114222   0.335393   0.011752  -0.000800
     2  C    0.182554   4.649883   0.674741  -0.069217  -0.005866   0.000071
     3  O   -0.114222   0.674741   8.060331   0.002833   0.000049  -0.000011
     4  C    0.335393  -0.069217   0.002833   5.527992  -0.043585   0.005265
     5  C    0.011752  -0.005866   0.000049  -0.043585   4.922067   0.401517
     6  H   -0.000800   0.000071  -0.000011   0.005265   0.401517   0.474660
     7  H    0.029231  -0.009613  -0.000421  -0.017873   0.411185  -0.016774
     8  H   -0.009019   0.001215   0.000010  -0.005269   0.424457  -0.012818
     9  N   -0.082854   0.028261  -0.000051  -0.035314   0.211293  -0.017084
    10  H   -0.021467   0.000417   0.000017   0.003755  -0.011943  -0.005228
    11  H    0.012825  -0.001254   0.000003   0.002504  -0.022986  -0.001924
    12  Br  -0.074906  -0.001159  -0.000207   0.340897   0.006447  -0.000383
    13  C   -0.143701  -0.009598  -0.000800   0.027380   0.026758  -0.000998
    14  C    0.009718  -0.011218  -0.000728  -0.073117   0.001547   0.000032
    15  C    0.001512   0.004763  -0.000216  -0.000551  -0.000369  -0.000005
    16  C    0.000948  -0.001676   0.000023  -0.001476   0.000302   0.000003
    17  C   -0.001980   0.001932  -0.000005  -0.001584  -0.001341  -0.000002
    18  C   -0.005943   0.011777  -0.000181  -0.106955  -0.007116   0.000599
    19  H   -0.010859   0.001043   0.001435   0.006451   0.000037   0.000002
    20  H    0.000070   0.000093  -0.000009  -0.000407  -0.000003  -0.000000
    21  H    0.000004  -0.000003   0.000000   0.000090   0.000002   0.000000
    22  H   -0.000028   0.000025   0.000000  -0.000457  -0.000027  -0.000001
    23  H    0.000772  -0.000113  -0.000001  -0.011435  -0.002535  -0.000062
    24  Cl   0.243017  -0.026919  -0.013070  -0.050238  -0.002030  -0.000331
    25  N   -0.139881   0.361723  -0.129171  -0.012775   0.001289   0.000183
    26  C    0.009281  -0.056744  -0.027896   0.001527   0.000418   0.000021
    27  C    0.004473  -0.016261   0.002452  -0.000295  -0.000070   0.000002
    28  C   -0.000739   0.000282  -0.002237   0.000084  -0.000000  -0.000000
    29  C    0.000097  -0.000021   0.000635  -0.000035  -0.000000   0.000000
    30  C    0.000020  -0.000857  -0.000510   0.000000   0.000028  -0.000000
    31  C   -0.000836   0.010411   0.004209  -0.002339   0.000229  -0.000015
    32  H   -0.003241  -0.031702   0.004549   0.007911  -0.003204   0.000270
    33  H    0.001290  -0.003306   0.032241  -0.000390   0.000001  -0.000000
    34  H   -0.000008  -0.000025  -0.000205   0.000001   0.000000   0.000000
    35  H    0.000001   0.000004   0.000002  -0.000000  -0.000000   0.000000
    36  H   -0.000004   0.000010  -0.000001   0.000003  -0.000000   0.000000
    37  H    0.000549   0.000310   0.000055  -0.000326   0.000085  -0.000001
               7          8          9         10         11         12
     1  C    0.029231  -0.009019  -0.082854  -0.021467   0.012825  -0.074906
     2  C   -0.009613   0.001215   0.028261   0.000417  -0.001254  -0.001159
     3  O   -0.000421   0.000010  -0.000051   0.000017   0.000003  -0.000207
     4  C   -0.017873  -0.005269  -0.035314   0.003755   0.002504   0.340897
     5  C    0.411185   0.424457   0.211293  -0.011943  -0.022986   0.006447
     6  H   -0.016774  -0.012818  -0.017084  -0.005228  -0.001924  -0.000383
     7  H    0.500487  -0.026022  -0.039230  -0.002909   0.005094   0.000908
     8  H   -0.026022   0.492536  -0.034149   0.004499  -0.007289  -0.000034
     9  N   -0.039230  -0.034149   6.629641   0.351511   0.349455  -0.077433
    10  H   -0.002909   0.004499   0.351511   0.393669  -0.018642  -0.000350
    11  H    0.005094  -0.007289   0.349455  -0.018642   0.396069   0.002497
    12  Br   0.000908  -0.000034  -0.077433  -0.000350   0.002497  35.019021
    13  C   -0.005245   0.007801  -0.023124   0.007608  -0.011884  -0.080484
    14  C    0.000503  -0.000496   0.002626  -0.000433   0.000899  -0.001811
    15  C   -0.000029   0.000139   0.001252   0.000037  -0.000290  -0.001645
    16  C    0.000041  -0.000142  -0.000595  -0.000007   0.000225   0.000829
    17  C   -0.000234   0.001065   0.005367   0.000030  -0.001432  -0.001944
    18  C   -0.000942  -0.000278   0.031880   0.000383  -0.004137   0.007615
    19  H   -0.000003  -0.000006  -0.000116  -0.000014   0.000008   0.004434
    20  H   -0.000000   0.000001   0.000011   0.000000  -0.000002  -0.000024
    21  H    0.000000  -0.000001  -0.000001  -0.000000   0.000001  -0.000007
    22  H   -0.000005   0.000078   0.000060   0.000001  -0.000062  -0.000006
    23  H    0.000420  -0.000624   0.002575   0.000096   0.001530   0.000548
    24  Cl   0.003124   0.000259   0.005152   0.007442  -0.000085  -0.021271
    25  N    0.005256  -0.000465  -0.002581   0.000047   0.000044  -0.000031
    26  C    0.000445  -0.000189  -0.000094   0.000001   0.000001   0.000061
    27  C   -0.000161  -0.000018   0.000033  -0.000001  -0.000002   0.000013
    28  C   -0.000002   0.000001   0.000000   0.000000  -0.000000  -0.000000
    29  C   -0.000000  -0.000001   0.000000  -0.000000  -0.000000   0.000000
    30  C    0.000001   0.000011  -0.000007   0.000000   0.000001   0.000001
    31  C   -0.000097   0.000204   0.000022   0.000002   0.000001  -0.000019
    32  H    0.000275  -0.002265   0.001751  -0.000227   0.000069  -0.000109
    33  H   -0.000029  -0.000000   0.000009  -0.000000  -0.000000  -0.000001
    34  H    0.000000   0.000000  -0.000000   0.000000   0.000000  -0.000000
    35  H   -0.000000  -0.000000   0.000000  -0.000000  -0.000000   0.000000
    36  H    0.000000  -0.000000   0.000000   0.000000  -0.000000  -0.000000
    37  H   -0.000018  -0.000009  -0.000035   0.000000   0.000002  -0.000001
              13         14         15         16         17         18
     1  C   -0.143701   0.009718   0.001512   0.000948  -0.001980  -0.005943
     2  C   -0.009598  -0.011218   0.004763  -0.001676   0.001932   0.011777
     3  O   -0.000800  -0.000728  -0.000216   0.000023  -0.000005  -0.000181
     4  C    0.027380  -0.073117  -0.000551  -0.001476  -0.001584  -0.106955
     5  C    0.026758   0.001547  -0.000369   0.000302  -0.001341  -0.007116
     6  H   -0.000998   0.000032  -0.000005   0.000003  -0.000002   0.000599
     7  H   -0.005245   0.000503  -0.000029   0.000041  -0.000234  -0.000942
     8  H    0.007801  -0.000496   0.000139  -0.000142   0.001065  -0.000278
     9  N   -0.023124   0.002626   0.001252  -0.000595   0.005367   0.031880
    10  H    0.007608  -0.000433   0.000037  -0.000007   0.000030   0.000383
    11  H   -0.011884   0.000899  -0.000290   0.000225  -0.001432  -0.004137
    12  Br  -0.080484  -0.001811  -0.001645   0.000829  -0.001944   0.007615
    13  C    5.882169   0.325543   0.068954  -0.140796   0.031504   0.134130
    14  C    0.325543   5.237306   0.321415   0.105435  -0.109146   0.056965
    15  C    0.068954   0.321415   5.114971   0.279519   0.075902  -0.126666
    16  C   -0.140796   0.105435   0.279519   5.134428   0.331249   0.090997
    17  C    0.031504  -0.109146   0.075902   0.331249   5.049185   0.363229
    18  C    0.134130   0.056965  -0.126666   0.090997   0.363229   5.322597
    19  H   -0.089154   0.475514  -0.057834   0.014874  -0.006318   0.014582
    20  H    0.017997  -0.071827   0.474874  -0.068659   0.014668  -0.005762
    21  H   -0.004938   0.013401  -0.063312   0.466283  -0.063917   0.014926
    22  H    0.016122  -0.005182   0.013660  -0.062965   0.464257  -0.062482
    23  H   -0.094549   0.004096  -0.002315   0.008335  -0.004243   0.457558
    24  Cl   0.015164   0.000390  -0.000193   0.000017  -0.000003  -0.000586
    25  N    0.021411  -0.014973   0.002888  -0.001943   0.003491  -0.014027
    26  C   -0.006281   0.001337  -0.005745   0.002753  -0.001934   0.004498
    27  C   -0.000154   0.001165  -0.000345  -0.000168  -0.000281   0.000217
    28  C   -0.000031  -0.000302   0.000232  -0.000002   0.000068  -0.000035
    29  C    0.000077   0.000196  -0.000192  -0.000122  -0.000107   0.000050
    30  C   -0.000307  -0.000602   0.001365   0.002497   0.001311  -0.000300
    31  C   -0.000060   0.005789  -0.003013   0.003153  -0.002719   0.001492
    32  H   -0.002367  -0.012604   0.001144  -0.002085   0.003779  -0.011697
    33  H    0.000133   0.000040   0.000013  -0.000007   0.000001   0.000008
    34  H   -0.000001  -0.000002   0.000000   0.000000   0.000000  -0.000000
    35  H    0.000000   0.000001  -0.000002  -0.000001  -0.000000   0.000000
    36  H   -0.000022  -0.000035   0.000081   0.000214   0.000147  -0.000016
    37  H    0.001279  -0.000187  -0.003760  -0.001018  -0.005737   0.003872
              19         20         21         22         23         24
     1  C   -0.010859   0.000070   0.000004  -0.000028   0.000772   0.243017
     2  C    0.001043   0.000093  -0.000003   0.000025  -0.000113  -0.026919
     3  O    0.001435  -0.000009   0.000000   0.000000  -0.000001  -0.013070
     4  C    0.006451  -0.000407   0.000090  -0.000457  -0.011435  -0.050238
     5  C    0.000037  -0.000003   0.000002  -0.000027  -0.002535  -0.002030
     6  H    0.000002  -0.000000   0.000000  -0.000001  -0.000062  -0.000331
     7  H   -0.000003  -0.000000   0.000000  -0.000005   0.000420   0.003124
     8  H   -0.000006   0.000001  -0.000001   0.000078  -0.000624   0.000259
     9  N   -0.000116   0.000011  -0.000001   0.000060   0.002575   0.005152
    10  H   -0.000014   0.000000  -0.000000   0.000001   0.000096   0.007442
    11  H    0.000008  -0.000002   0.000001  -0.000062   0.001530  -0.000085
    12  Br   0.004434  -0.000024  -0.000007  -0.000006   0.000548  -0.021271
    13  C   -0.089154   0.017997  -0.004938   0.016122  -0.094549   0.015164
    14  C    0.475514  -0.071827   0.013401  -0.005182   0.004096   0.000390
    15  C   -0.057834   0.474874  -0.063312   0.013660  -0.002315  -0.000193
    16  C    0.014874  -0.068659   0.466283  -0.062965   0.008335   0.000017
    17  C   -0.006318   0.014668  -0.063917   0.464257  -0.004243  -0.000003
    18  C    0.014582  -0.005762   0.014926  -0.062482   0.457558  -0.000586
    19  H    0.487007  -0.007687   0.000007  -0.000013   0.000061   0.000853
    20  H   -0.007687   0.504521  -0.007354   0.000011   0.000021  -0.000003
    21  H    0.000007  -0.007354   0.503151  -0.007129  -0.000081   0.000000
    22  H   -0.000013   0.000011  -0.007129   0.502564  -0.006931  -0.000000
    23  H    0.000061   0.000021  -0.000081  -0.006931   0.504803  -0.000027
    24  Cl   0.000853  -0.000003   0.000000  -0.000000  -0.000027  16.988559
    25  N   -0.002699   0.000058  -0.000026   0.000028   0.000151   0.003740
    26  C    0.001548  -0.000101   0.000002  -0.000009   0.000020  -0.000033
    27  C    0.000373  -0.000029   0.000007   0.000000  -0.000007  -0.000167
    28  C   -0.000027   0.000009  -0.000003   0.000000   0.000000  -0.000009
    29  C   -0.000012   0.000005   0.000003  -0.000001  -0.000000   0.000000
    30  C   -0.000033   0.000053   0.000009  -0.000012   0.000005  -0.000001
    31  C   -0.000039   0.000028   0.000080  -0.000022   0.000179   0.000034
    32  H    0.000391   0.000036  -0.000022   0.000135  -0.001026   0.000225
    33  H   -0.000042   0.000002   0.000000   0.000000  -0.000000  -0.000074
    34  H    0.000000  -0.000000  -0.000000  -0.000000   0.000000   0.000000
    35  H    0.000000   0.000000   0.000000   0.000000  -0.000000   0.000000
    36  H    0.000001  -0.000000  -0.000001   0.000002   0.000000   0.000000
    37  H   -0.000036  -0.000085   0.000181  -0.000322  -0.000131   0.000002
              25         26         27         28         29         30
     1  C   -0.139881   0.009281   0.004473  -0.000739   0.000097   0.000020
     2  C    0.361723  -0.056744  -0.016261   0.000282  -0.000021  -0.000857
     3  O   -0.129171  -0.027896   0.002452  -0.002237   0.000635  -0.000510
     4  C   -0.012775   0.001527  -0.000295   0.000084  -0.000035   0.000000
     5  C    0.001289   0.000418  -0.000070  -0.000000  -0.000000   0.000028
     6  H    0.000183   0.000021   0.000002  -0.000000   0.000000  -0.000000
     7  H    0.005256   0.000445  -0.000161  -0.000002  -0.000000   0.000001
     8  H   -0.000465  -0.000189  -0.000018   0.000001  -0.000001   0.000011
     9  N   -0.002581  -0.000094   0.000033   0.000000   0.000000  -0.000007
    10  H    0.000047   0.000001  -0.000001   0.000000  -0.000000   0.000000
    11  H    0.000044   0.000001  -0.000002  -0.000000  -0.000000   0.000001
    12  Br  -0.000031   0.000061   0.000013  -0.000000   0.000000   0.000001
    13  C    0.021411  -0.006281  -0.000154  -0.000031   0.000077  -0.000307
    14  C   -0.014973   0.001337   0.001165  -0.000302   0.000196  -0.000602
    15  C    0.002888  -0.005745  -0.000345   0.000232  -0.000192   0.001365
    16  C   -0.001943   0.002753  -0.000168  -0.000002  -0.000122   0.002497
    17  C    0.003491  -0.001934  -0.000281   0.000068  -0.000107   0.001311
    18  C   -0.014027   0.004498   0.000217  -0.000035   0.000050  -0.000300
    19  H   -0.002699   0.001548   0.000373  -0.000027  -0.000012  -0.000033
    20  H    0.000058  -0.000101  -0.000029   0.000009   0.000005   0.000053
    21  H   -0.000026   0.000002   0.000007  -0.000003   0.000003   0.000009
    22  H    0.000028  -0.000009   0.000000   0.000000  -0.000001  -0.000012
    23  H    0.000151   0.000020  -0.000007   0.000000  -0.000000   0.000005
    24  Cl   0.003740  -0.000033  -0.000167  -0.000009   0.000000  -0.000001
    25  N    6.541247   0.353207  -0.061075   0.004242  -0.000409   0.005281
    26  C    0.353207   5.007771   0.308642   0.053034  -0.127347   0.064172
    27  C   -0.061075   0.308642   5.266763   0.361702   0.059132  -0.110797
    28  C    0.004242   0.053034   0.361702   5.015631   0.387475   0.040238
    29  C   -0.000409  -0.127347   0.059132   0.387475   5.060363   0.382911
    30  C    0.005281   0.064172  -0.110797   0.040238   0.382911   5.008459
    31  C   -0.076897   0.265366   0.104752  -0.121520   0.063720   0.352818
    32  H    0.380421  -0.041955   0.005170   0.000109  -0.000324   0.001504
    33  H   -0.005570  -0.060412   0.439468  -0.042632   0.011660  -0.005747
    34  H   -0.000069   0.016575  -0.061933   0.456557  -0.059902   0.012383
    35  H    0.000000  -0.006292   0.014523  -0.063806   0.462715  -0.064279
    36  H   -0.000141   0.016331  -0.005455   0.012765  -0.060075   0.459682
    37  H   -0.001057  -0.068971   0.008266  -0.003035   0.008097  -0.028805
              31         32         33         34         35         36
     1  C   -0.000836  -0.003241   0.001290  -0.000008   0.000001  -0.000004
     2  C    0.010411  -0.031702  -0.003306  -0.000025   0.000004   0.000010
     3  O    0.004209   0.004549   0.032241  -0.000205   0.000002  -0.000001
     4  C   -0.002339   0.007911  -0.000390   0.000001  -0.000000   0.000003
     5  C    0.000229  -0.003204   0.000001   0.000000  -0.000000  -0.000000
     6  H   -0.000015   0.000270  -0.000000   0.000000   0.000000   0.000000
     7  H   -0.000097   0.000275  -0.000029   0.000000  -0.000000   0.000000
     8  H    0.000204  -0.002265  -0.000000   0.000000  -0.000000  -0.000000
     9  N    0.000022   0.001751   0.000009  -0.000000   0.000000   0.000000
    10  H    0.000002  -0.000227  -0.000000   0.000000  -0.000000   0.000000
    11  H    0.000001   0.000069  -0.000000   0.000000  -0.000000  -0.000000
    12  Br  -0.000019  -0.000109  -0.000001  -0.000000   0.000000  -0.000000
    13  C   -0.000060  -0.002367   0.000133  -0.000001   0.000000  -0.000022
    14  C    0.005789  -0.012604   0.000040  -0.000002   0.000001  -0.000035
    15  C   -0.003013   0.001144   0.000013   0.000000  -0.000002   0.000081
    16  C    0.003153  -0.002085  -0.000007   0.000000  -0.000001   0.000214
    17  C   -0.002719   0.003779   0.000001   0.000000  -0.000000   0.000147
    18  C    0.001492  -0.011697   0.000008  -0.000000   0.000000  -0.000016
    19  H   -0.000039   0.000391  -0.000042   0.000000   0.000000   0.000001
    20  H    0.000028   0.000036   0.000002  -0.000000   0.000000  -0.000000
    21  H    0.000080  -0.000022   0.000000  -0.000000   0.000000  -0.000001
    22  H   -0.000022   0.000135   0.000000  -0.000000   0.000000   0.000002
    23  H    0.000179  -0.001026  -0.000000   0.000000  -0.000000   0.000000
    24  Cl   0.000034   0.000225  -0.000074   0.000000   0.000000   0.000000
[...]
 ,-0.00001663,0.00002724,-0.00001501,0.00000656,-0.00002200,-0.00001690
 ,-0.00000914,0.00003126,-0.00001079,-0.00000093,0.00000043,0.00026115,
 -0.00016806,-0.00042572,-0.00002590,-0.00001050,0.00000221,0.00001919,
 0.00003535,-0.00006915,0.00015787,-0.00007464,0.00000371,0.00007366,0.
 00002755,-0.00000640,0.00000404,-0.00002594,-0.00001708,-0.00000822,-0
 .00000041,0.00000681,-0.00002090,-0.00001323,0.00000347,-0.00001431,-0
 .00000318,-0.00001379,0.00000405,-0.00000203,0.00002610,0.00000429,0.0
 0000668,-0.00001851,-0.00000540,-0.00000540,0.00000356,-0.00000117,-0.
 00000515,0.00000081,-0.00000370,-0.00000772,-0.00000103,0.00000318,0.0
 0000876,-0.00000095,0.00004973,-0.00002939,-0.00003080,-0.00053193,-0.
 00201770,-0.00169189,0.01251511,0.01809432,0.00408425,-0.10193274,-0.1
 0851884,-0.02050731,-0.00704721,-0.02650774,-0.00665609,-0.00449404,-0
 .00024577,0.00211454,-0.00084469,0.00065635,0.00023080,-0.00196335,0.0
 0267653,0.00223899,0.00005638,-0.00009078,-0.00003716,0.10836784,-0.00
 031409,0.00052870,0.00001474,0.00151874,-0.00201675,-0.00101458,-0.005
 48015,-0.00023061,0.00015425,0.00014147,-0.00024181,-0.00017878,-0.000
 02716,0.00000117,-0.00000724,0.00000342,-0.00000046,0.00000779,0.00000
 718,0.00000436,-0.00001359,0.00000339,0.00000002,0.00000030,-0.0000691
 7,0.00004219,0.00012112,0.00000937,0.00000181,-0.00000479,-0.00000567,
 -0.00000959,0.00001793,-0.00010539,0.00005874,-0.00001865,-0.00002885,
 -0.00001437,-0.00000105,-0.00000501,0.00000163,0.00000064,0.00000907,-
 0.00000281,-0.00000849,0.00001785,0.00000835,-0.00000259,0.00001238,0.
 00000221,0.00001557,-0.00000336,-0.00000534,-0.00000555,-0.00000218,-0
 .00000089,0.00000735,0.00000113,0.00000211,-0.00000031,-0.00000031,0.0
 0000182,-0.00000044,0.00000071,0.00000295,-0.00000025,-0.00000057,-0.0
 0000208,-0.00000023,-0.00000493,0.00004681,0.00005582,0.00014142,0.000
 56398,0.00184392,-0.01191846,-0.01525953,-0.00434442,-0.10367402,-0.29
 591486,-0.06122842,0.00084233,0.00222201,-0.00067717,-0.00034478,0.002
 40382,-0.00171758,0.00086022,0.00031136,0.00025541,0.00304629,-0.00112
 415,-0.00316554,-0.00006250,-0.00011311,0.00001549,0.11582012,0.309356
 77,-0.00023883,-0.00012343,0.00032986,0.00032770,-0.00014435,-0.000218
 63,-0.00145379,-0.00002958,-0.00062632,0.00005357,-0.00006489,-0.00003
 129,-0.00001174,0.00000665,-0.00000897,0.00000426,-0.00000211,0.000001
 88,-0.00000376,-0.00000510,0.00000390,0.00000006,0.00000176,0.00000154
 ,-0.00004342,0.00004071,0.00007965,0.00000363,0.00000156,-0.00000114,-
 0.00000453,-0.00000586,0.00001554,0.00005178,-0.00001682,0.00000630,-0
 .00001669,0.00002193,0.00000321,-0.00001300,0.00002026,-0.00000699,0.0
 0000273,-0.00000697,-0.00000271,0.00000273,0.00001249,0.00001047,0.000
 01260,0.00001679,-0.00001101,0.00000406,-0.00002273,-0.00000156,-0.000
 00003,-0.00000646,0.00000334,-0.00000036,0.00000134,-0.00000113,-0.000
 00176,0.00000093,0.,-0.00000133,0.00000134,-0.00000128,-0.00000080,-0.
 00000038,-0.00000124,0.,-0.00000343,-0.00001624,-0.00127856,0.00180486
 ,-0.00293380,-0.00527651,-0.01013747,0.00268280,-0.01851450,-0.0621428
 6,-0.05389703,0.00193534,0.00542669,0.00438138,0.00243705,-0.00155276,
 0.00664302,0.00044364,0.00012413,-0.00088604,0.00238576,-0.00303992,0.
 00485652,-0.00004036,0.00011736,-0.00023331,0.02059422,0.06821945,0.04
 437354,-0.00018995,0.00014716,-0.00002267,0.00061744,0.00050510,0.0004
 2108,-0.00008259,-0.00025578,-0.00017034,0.00017927,-0.00017867,-0.000
 12796,-0.00001606,-0.00000541,0.00000075,-0.00000214,-0.00000037,0.000
 00829,0.00000834,0.00001164,-0.00001319,0.00000310,-0.00000365,-0.0000
 0761,-0.00006213,0.00003688,0.00009845,0.00000801,0.00000273,-0.000000
 46,-0.00000211,-0.00000711,0.00001461,-0.00006023,0.00001956,-0.000004
 43,-0.00002689,0.00002230,-0.00001451,-0.00001771,0.00002023,0.0000178
 3,-0.00000865,-0.00000418,0.00000737,0.00000382,0.00000249,0.00000098,
 -0.00000392,-0.00000484,-0.00000518,-0.00001172,0.00000147,-0.00003231
 ,0.00000179,-0.00000454,0.00000807,0.00000312,0.00000230,-0.00000319,0
 .00000193,0.00000332,-0.00000057,0.00000165,0.00000434,0.00000204,-0.0
 0000003,-0.00000483,0.00000248,-0.00006604,-0.00003730,0.00000745,-0.0
 0109098,0.00123903,0.00058792,-0.00412449,-0.00240318,0.00161817,-0.01
 303718,0.02420235,0.01086091,-0.15024228,0.11760045,0.05929768,0.01130
 667,-0.01103919,-0.00499095,0.00019079,-0.00318979,0.00029622,-0.00080
 521,-0.00081787,-0.00030487,-0.00040766,-0.00011577,-0.00005475,0.0010
 3650,-0.00000089,-0.00107980,0.15587942,0.00011103,-0.00010566,-0.0000
 0137,-0.00024866,-0.00018894,-0.00013784,0.00011954,0.00006829,0.00004
 664,-0.00008699,0.00009419,0.00007395,0.00000907,0.00000156,0.00000131
 ,-0.00000079,0.00000037,-0.00000413,-0.00000273,-0.00000359,0.00000462
 ,-0.00000159,0.00000076,0.00000183,0.00003302,-0.00001949,-0.00005071,
 -0.00000355,-0.00000148,0.00000041,0.00000165,0.00000362,-0.00000793,0
 .00003341,-0.00001057,0.00000285,0.00000840,-0.00000002,0.00000434,0.0
 0000498,-0.00001541,-0.00000222,0.00001045,0.00000696,-0.00000263,0.00
 000067,0.00000226,-0.00000505,0.00000078,-0.00000282,0.00000697,-0.000
 00420,0.00000363,0.00000785,-0.00000009,0.00000246,-0.00000357,-0.0000
 0171,-0.00000075,0.00000112,-0.00000077,-0.00000129,-0.00000014,-0.000
 00102,-0.00000135,-0.00000089,0.00000132,0.00000140,-0.00000109,0.0000
 2223,0.00001292,-0.00001290,0.00029773,0.00040864,0.00011420,-0.002512
 59,0.00189123,-0.00144194,-0.00484912,0.00715474,0.00190155,0.11775297
 ,-0.21432400,-0.07927713,0.01841901,-0.01495500,-0.00966396,-0.0037215
 5,-0.00333587,-0.00280131,-0.00081030,-0.00009972,0.00047731,-0.000080
 94,0.00001635,0.00007038,0.00058420,0.00021348,0.00142153,-0.12617747,
 0.22356176,0.00006312,-0.00004373,0.00000627,-0.00016580,-0.00017489,-
 0.00010722,-0.00001981,0.00006484,0.00011090,-0.00005773,0.00006134,0.
 00004095,0.00000541,0.00000051,0.00000054,-0.00000033,0.00000051,-0.00
 000237,-0.00000198,-0.00000198,0.00000432,-0.00000083,0.00000030,0.000
 00175,0.00002090,-0.00001269,-0.00003179,-0.00000213,-0.00000116,-0.00
 000008,0.00000112,0.00000253,-0.00000506,0.00001797,-0.00000556,0.0000
 0023,0.00000025,0.00000455,-0.00001203,-0.00001252,0.00000817,-0.00000
 508,-0.00000504,-0.00001393,-0.00000541,0.00000853,-0.00000609,0.00000
 813,0.00000036,0.00000413,0.00000035,0.00000759,-0.00000766,0.00000689
 ,0.00000010,0.00000120,-0.00000203,-0.00000054,0.00000007,0.00000040,-
 0.00000191,0.00000050,-0.00000026,-0.00000030,-0.00000118,-0.00000047,
 -0.00000034,0.00000156,-0.00000056,0.00001842,0.00001417,-0.00000319,0
 .00019012,-0.00003770,0.00007897,0.00156958,-0.00156456,0.00694554,0.0
 0138349,-0.00360524,0.00236194,0.05969363,-0.07898987,-0.07615338,0.00
 454736,-0.00447039,0.00167503,-0.00004078,-0.00281999,0.00654204,-0.00
 023119,0.00051358,-0.00086615,-0.00000847,0.00005564,-0.00011598,-0.00
 078534,0.00159573,-0.00384992,-0.06542062,0.08797230,0.06784567,-0.000
 14120,0.00011471,0.00000997,0.00032543,0.00016269,0.00015539,-0.000215
 50,-0.00008984,-0.00009547,0.00011652,-0.00011181,-0.00008542,-0.00001
 212,-0.00000107,-0.00000121,-0.00000003,-0.00000076,0.00000538,0.00000
 467,0.00000559,-0.00000746,0.00000230,-0.00000136,-0.00000453,-0.00004
 337,0.00002370,0.00006660,0.00000537,0.00000178,-0.00000022,-0.0000004
 5,-0.00000434,0.00000952,-0.00004346,0.00001106,-0.00000455,-0.0000043
 6,0.00000698,-0.00000031,-0.00000265,0.00001837,0.00001007,-0.00001333
 ,0.00000133,0.00001369,-0.00001449,-0.00000435,-0.00000047,-0.00000888
 ,-0.00000564,-0.00001350,0.00000014,0.00000894,-0.00002008,0.00000048,
 -0.00000370,0.00000425,0.00000245,0.00000062,-0.00000283,0.00000294,0.
 00000214,0.00000011,0.00000169,0.00000243,0.00000234,-0.00000119,-0.00
 000341,0.00000260,-0.00003577,-0.00002118,0.00000779,-0.00042934,-0.00
 013994,-0.00022779,0.00081587,0.00023083,-0.00017991,0.00124393,-0.002
 61424,0.00030426,-0.00784948,0.00120879,0.00236774,-0.33161560,-0.0426
 8125,0.04196292,-0.01262551,-0.00547133,0.00101908,0.00019785,0.002746
 52,0.00225790,0.00005789,0.00002105,-0.00002519,-0.00040182,0.00014283
 ,0.00019916,0.00061015,0.00003863,-0.00089971,0.35016150,-0.00005304,0
 .00008925,-0.00001077,0.00016157,-0.00020555,-0.00007415,-0.00031753,0
 .00009977,0.00005063,0.00002889,-0.00005542,-0.00003546,-0.00000470,-0
 .00000047,-0.00000127,0.00000080,-0.00000017,0.00000131,0.00000085,0.0
 0000072,-0.00000218,0.00000030,-0.00000013,0.00000082,-0.00001409,0.00
 001054,0.00002455,0.00000139,0.00000052,-0.00000058,-0.00000247,-0.000
 00252,0.00000427,-0.00001435,0.00001045,-0.00000067,-0.00000889,-0.000
 00960,-0.00000505,-0.00000326,0.00000026,-0.00000420,0.00000172,-0.000
 00388,-0.00000855,0.00001309,0.00000492,0.00000055,0.00000830,0.000006
 33,0.00000770,0.00000023,-0.00000719,0.00000597,0.00000033,0.00000010,
 0.00000217,0.00000024,0.00000032,0.00000124,-0.00000166,-0.00000004,-0
 .00000014,-0.00000038,0.00000035,-0.00000082,0.00000025,0.00000031,-0.
 00000097,-0.00000190,0.00000575,0.00000685,0.00010873,0.00019117,0.000
 41523,0.00029848,-0.00138071,-0.00028985,-0.00192023,-0.00397468,-0.00
 331142,-0.02844574,0.00075013,0.00475533,-0.04269617,-0.06400026,-0.00
 141205,0.02407577,0.00774797,-0.00280504,0.00218463,-0.00238115,-0.003
 60102,-0.00012505,-0.00005605,0.00000511,-0.00115021,0.00003758,0.0002
 0394,0.00082866,0.00061947,0.00143018,0.04627135,0.06173940,0.00000137
 ,-0.00007092,0.00007739,-0.00014730,-0.00004929,-0.00014706,0.00000183
 ,0.00008496,-0.00001988,-0.00002624,0.00001743,0.00001911,0.00000142,0
 .00000119,-0.00000184,0.00000100,0.00000055,-0.00000108,-0.00000031,-0
 .00000165,0.00000179,0.00000005,0.00000057,0.00000197,0.00000358,0.000
 00219,-0.00000289,-0.00000038,-0.00000022,-0.00000050,-0.00000101,0.00
 000028,0.00000104,0.00002794,-0.00000747,0.00000255,-0.00000849,0.0000
 1371,0.00000476,-0.00000651,0.00000050,-0.00000634,0.00000026,-0.00000
 243,-0.00000909,0.00001909,-0.00000390,-0.00000483,0.00000416,-0.00001
 353,0.00002011,-0.00001797,0.00000343,-0.00000323,-0.00000079,0.000001
 47,-0.00000146,-0.00000064,0.00000017,0.00000051,-0.00000052,-0.000000
 66,0.00000015,0.00000005,-0.00000086,-0.00000153,0.00000137,0.00000026
 ,-0.00000104,0.00000304,0.00000029,-0.00000739,-0.00012507,0.00060063,
 -0.00078928,-0.00008691,-0.00037839,-0.00070004,0.00068506,-0.00319442
 ,0.00604829,-0.00752876,-0.00089725,0.00364919,0.04193067,-0.00125352,
 -0.04388294,0.01102162,0.00267916,0.00114336,0.00178742,-0.00375326,0.
 00562258,-0.00002574,-0.00004187,0.00001306,-0.00025261,-0.00007279,0.
 00035396,-0.00061957,0.00156299,-0.00358065,-0.04617462,0.00328126,0.0
 3539659,-0.00022887,0.00013349,-0.00007216,0.00017369,0.00057475,0.000
 64990,0.00004093,-0.00024065,-0.00016881,0.00017399,-0.00019096,-0.000
 12700,-0.00001763,-0.00000323,-0.00000277,0.00000042,-0.00000053,0.000
 00761,0.00000639,0.00000793,-0.00001183,0.00000302,-0.00000146,-0.0000
 0460,-0.00006169,0.00003605,0.00009880,0.00000714,0.00000267,-0.000000
 96,-0.00000356,-0.00000723,0.00001484,-0.00006479,0.00002423,-0.000005
 12,-0.00001526,0.00000506,-0.00000753,-0.00000424,0.00002163,0.0000102
 0,-0.00000795,-0.00000385,0.00000404,0.00000426,-0.00000057,0.00000292
 ,0.00000467,-0.00000477,-0.00000350,-0.00000067,0.00000231,-0.00002059
 ,0.00000080,-0.00000338,0.00000738,0.00000264,0.00000075,-0.00000250,0
 .00000181,0.00000497,-0.00000074,0.00000011,0.00000472,0.00000213,-0.0
 0000113,-0.00000327,0.00000179,-0.00007247,-0.00003574,-0.00000188,-0.
 00105295,-0.00177902,-0.00071467,-0.00436773,-0.00006557,0.00228454,-0
 .00106009,0.00055563,0.00017126,-0.00118937,0.00283348,0.00257383,0.01
 175722,0.01715152,0.00417514,-0.10368207,-0.10008395,-0.02050132,-0.00
 748443,-0.02874230,-0.00710840,0.00008773,-0.00003018,-0.00009795,0.00
 007760,-0.00001394,-0.00023320,0.00038293,0.00087203,0.00021898,0.0006
 7506,-0.00036959,-0.00105399,0.10496053,-0.00014893,0.00012446,-0.0000
 0695,0.00040338,0.00038962,0.00034403,-0.00007562,-0.00017411,-0.00015
 263,0.00013484,-0.00013941,-0.00010541,-0.00001356,-0.00000340,-0.0000
 0086,-0.00000004,-0.00000053,0.00000627,0.00000515,0.00000667,-0.00000
 860,0.00000259,-0.00000132,-0.00000435,-0.00004817,0.00002857,0.000075
 48,0.00000569,0.00000202,-0.00000023,-0.00000179,-0.00000538,0.0000112
 2,-0.00005081,0.00001480,-0.00000361,-0.00000454,-0.00000518,-0.000000
 46,-0.00000032,0.00000958,0.00001079,-0.00000867,0.00000154,0.00000954
 ,-0.00002176,0.00000268,0.00000152,-0.00001507,0.00000058,-0.00001433,
 0.00000306,0.00001089,-0.00001558,0.00000064,-0.00000353,0.00000589,0.
 00000160,0.00000093,-0.00000291,0.00000118,0.00000070,-0.00000005,0.00
 000142,0.00000249,0.00000214,-0.00000187,-0.00000298,0.00000186,-0.000
 04475,-0.00002716,0.00001243,-0.00069270,-0.00049408,-0.00017817,-0.00
 006563,0.00259283,-0.00178159,0.00051384,0.00029853,0.00037489,0.00339
 284,-0.00120272,-0.00343369,-0.01194956,-0.01497910,-0.00388836,-0.100
 61634,-0.28336291,-0.06101772,0.00061175,-0.00044632,-0.00143852,0.000
 03587,-0.00002255,-0.00002782,-0.00001265,-0.00012983,0.00031123,-0.00
 055641,-0.00092523,-0.00021105,0.00042973,0.00053047,0.00141247,0.1087
 5527,0.29761592,-0.00002431,0.00003098,-0.00000722,0.00007825,0.000144
 68,-0.00004718,0.00002139,-0.00005381,0.00002166,0.00001400,-0.0000063
 0,-0.00000750,-0.00000008,-0.00000011,-0.00000022,0.00000015,-0.000000
 11,0.00000044,0.00000024,0.00000078,0.00000026,-0.00000066,-0.00000057
 ,-0.00000005,-0.00000472,0.00000192,0.00000479,0.00000088,-0.00000002,
 -0.00000034,-0.00000016,-0.00000039,0.00000073,-0.00000896,0.00000142,
 -0.00000217,0.00000802,-0.00000369,-0.00000481,-0.00000602,0.00001068,
 -0.00000285,-0.00000206,-0.00000094,0.00000811,-0.00001623,0.00000335,
 -0.00000488,0.00000384,-0.00000089,-0.00001032,0.00000604,0.00000343,-
 0.00000197,-0.00000050,-0.00000071,-0.00000029,0.00000040,-0.00000086,
 -0.00000220,-0.00000292,0.00000321,0.00000008,0.00000048,0.00000019,0.
 00000142,-0.00000032,0.00000014,0.00000062,0.00001241,0.00000381,0.000
 00431,0.00000081,0.00017244,0.00019946,0.00219278,-0.00180371,0.006972
 90,0.00016097,0.00029031,-0.00104826,0.00293118,-0.00320903,0.00580909
 ,-0.00529944,-0.00979747,0.00153527,-0.02087172,-0.06095148,-0.0546645
 6,0.00226690,0.00422199,0.00452486,-0.00001506,-0.00001208,-0.00001145
 ,-0.00019397,0.00032340,-0.00089137,-0.00025642,-0.00049066,-0.0000952
 8,-0.00075885,0.00159293,-0.00338832,0.02068519,0.06815198,0.04496429,
 0.00008730,-0.00006012,0.00003024,-0.00003636,-0.00038925,-0.00039289,
 -0.00011723,0.00017197,0.00014828,-0.00021192,-0.00006293,0.00006747,0
 .00002024,-0.00000833,-0.00001279,0.00000524,0.00000649,-0.00000998,-0
 .00000469,-0.00000847,0.00001243,0.00001214,0.00000758,0.00001819,0.00
 004663,0.00001776,-0.00003539,-0.00001047,0.00000008,-0.00000716,-0.00
 002707,-0.00000516,0.00000787,0.00014681,0.00002834,0.00003075,0.00001
 115,0.00000419,-0.00006741,-0.00002005,0.00006830,-0.00002520,-0.00043
 166,0.00029303,-0.00033880,-0.00015227,0.00030590,-0.00034887,-0.00003
 526,0.00039748,0.00011776,-0.00049001,-0.00006438,0.00023186,0.0000081
 3,0.00001368,0.00001791,0.00000822,-0.00001074,0.00004400,0.00000222,-
 0.00004855,0.00003374,0.00000606,-0.00002204,-0.00001281,0.00002124,0.
 00001732,-0.00002346,0.00006374,0.00007631,0.00000716,0.00193152,-0.00
 121168,-0.00128921,0.00811802,-0.01041798,-0.00411109,-0.00004787,-0.0
 0281724,0.00006842,-0.00080551,-0.00078891,-0.00028648,-0.00472672,-0.
 00240614,0.00141563,-0.01253525,0.02484957,0.01079580,-0.15007195,0.11
 722640,0.05752127,-0.00033396,-0.00047251,0.00033410,0.00036085,-0.000
 51645,-0.00024532,0.00002304,0.00018296,-0.00009156,-0.00076569,0.0011
 4369,0.00058749,0.00095394,0.00003035,-0.00092152,0.15899744,0.0000106
 8,-0.00002115,-0.00000882,-0.00050222,-0.00026275,-0.00015577,-0.00009
 292,0.00046673,0.00029134,-0.00001787,0.00007004,-0.00000031,-0.000003
 73,0.00000065,-0.00000670,0.00000784,-0.00000044,-0.00000059,-0.000004
 49,-0.00000986,0.00000504,-0.00000849,0.00000615,0.00001634,0.00001457
 ,-0.00000938,-0.00001785,-0.00000137,-0.00000147,0.00000055,0.00000157
 ,0.00000230,-0.00000367,-0.00001829,-0.00001099,0.00000129,-0.00007990
 ,-0.00018345,-0.00018982,-0.00010643,-0.00022156,0.00005347,0.00037115
 ,-0.00007338,0.00020000,0.00018720,-0.00024963,0.00027597,0.00014999,-
 0.00025746,-0.00008516,0.00011762,0.00021228,0.00005411,0.00000169,-0.
 00000255,0.00000285,-0.00001147,-0.00000198,-0.00001292,-0.00001853,-0
 .00000645,-0.00001339,-0.00000171,-0.00001992,-0.00000272,-0.00000849,
 -0.00000293,0.00000475,0.00002730,0.00001560,-0.00000711,0.00261829,0.
 00123339,0.00105300,0.01807093,-0.01526350,-0.00951696,-0.00364444,-0.
 00337124,-0.00218621,-0.00106651,-0.00021037,0.00041251,-0.00193511,0.
 00191338,-0.00135315,-0.00468375,0.00775677,0.00229543,0.11672862,-0.2
 1322156,-0.07735470,-0.00202440,-0.00084763,0.00016300,0.00099803,-0.0
 0074565,-0.00044982,0.00015724,-0.00007290,0.00023585,-0.00029577,0.00
 023202,0.00007892,0.00059369,0.00029246,0.00137516,-0.12553051,0.22286
 643,0.00014166,-0.00021000,0.00005519,-0.00073142,-0.00006537,-0.00087
 486,-0.00003155,0.00015997,0.00033484,-0.00018700,-0.00001809,0.000085
 45,0.00001975,0.00000518,-0.00000532,0.00000019,0.00000548,-0.00000978
 ,-0.00000574,-0.00000943,0.00000750,-0.00000397,-0.00000316,0.00001102
 ,0.00003852,-0.00000668,-0.00003893,-0.00000725,-0.00000061,-0.0000069
 4,-0.00001317,0.00000093,0.00000163,0.00013024,0.00001638,0.00001915,-
 0.00008555,0.00008764,0.00000376,-0.00011294,0.00000446,-0.00017228,-0
 .00031267,0.00007224,-0.00044196,0.00011428,0.00016746,-0.00001450,0.0
 0002845,-0.00012428,0.00020429,0.00006595,0.00000664,-0.00005836,0.000
 01171,0.00002010,0.00000684,0.00000406,0.00000239,0.00001881,-0.000000
 47,-0.00001197,-0.00000079,0.00001651,-0.00002523,-0.00002783,0.000031
 43,-0.00000093,-0.00002118,0.00000106,0.00003633,-0.00000876,-0.000011
 95,0.00211208,-0.00237822,0.00582672,-0.00422731,0.00192224,-0.0000944
 7,-0.00256610,0.00471460,-0.00063753,0.00023272,-0.00067428,0.00167180
 ,-0.00108231,0.00694944,0.00176469,-0.00310606,0.00161479,0.05641955,-
 0.07727366,-0.07077082,-0.00026432,-0.00042708,0.00032453,0.00027048,-
 0.00018642,-0.00012691,-0.00012093,0.00023333,-0.00079302,0.00010336,-
 0.00022582,0.00019297,-0.00076903,0.00156111,-0.00385707,-0.06327041,0
 .08484607,0.06381478\\0.00000372,-0.00007074,-0.00002391,0.00002325,0.
 00007283,0.00005204,0.00000680,-0.00003736,-0.00002588,-0.00003317,0.0
 0005411,-0.00000290,-0.00001858,-0.00007555,0.00006639,0.00002985,0.00
 001786,-0.00005129,-0.00001840,0.00002720,0.00000807,0.00000538,0.0000
 1772,-0.00000347,-0.00001095,0.00000543,-0.00002547,0.00000238,0.00000
 202,-0.00000315,-0.00000750,0.00000975,0.00000465,-0.00000230,-0.00000
 408,-0.00000313,0.00001298,-0.00001590,-0.00002351,0.00002205,0.000003
 08,-0.00003667,-0.00003450,-0.00002410,0.00003549,-0.00003504,-0.00003
 113,0.00004678,0.00002484,-0.00001819,-0.00010256,0.00000355,0.0000359
 9,0.00005473,0.00000481,0.00001618,0.00000963,0.00001489,0.00000274,-0
 .00002049,0.00001288,0.00001807,0.00000032,-0.00000186,0.00002356,0.00
 003748,0.00000048,-0.00000587,-0.00000943,0.00001033,0.00001074,0.0000
 0040,-0.00001109,-0.00005604,-0.00002499,-0.00003286,0.00003802,0.0000
 1537,0.00000589,-0.00005306,-0.00001749,-0.00001218,0.00005996,0.00003
 058,0.00002711,-0.00004748,-0.00002069,0.00000128,0.00001005,0.0000152
 3,0.00000275,-0.00001041,-0.00001039,0.00000238,0.00001385,0.00000666,
 0.00000948,0.00002537,0.00000888,0.00001455,-0.00002280,-0.00000573,-0
 .00001036,0.00000200,0.00000631,-0.00000566,-0.00000010,0.00000487,-0.
 00000719,0.00000628,0.00000724\\\@


 EDUCATION WITHOUT COMMON SENSE IS A LOAD OF BOOKS ON THE BACK OF AN ASS.
 Job cpu time:       1 days 21 hours 11 minutes 37.7 seconds.
 Elapsed time:       0 days  2 hours 49 minutes 35.2 seconds.
 File lengths (MBytes):  RWF=   2143 Int=      0 D2E=      0 Chk=     54 Scr=      1
 Normal termination of Gaussian 16 at Sat Mar 27 23:39:54 2021.
