 Entering Gaussian System, Link 0=g16
 Initial command:
 /apps/gaussian/16/A.03/g16/l1.exe "/beegfs/scratch/user/q/tla25/Gau-36841.inp" -scrdir="/beegfs/scratch/user/q/tla25/"
 Entering Link 1 = /apps/gaussian/16/A.03/g16/l1.exe PID=     36842.
  
 Copyright (c) 1988,1990,1992,1993,1995,1998,2003,2009,2016,
            Gaussian, Inc.  All Rights Reserved.
  
 This is part of the Gaussian(R) 16 program.  It is based on
 the Gaussian(R) 09 system (copyright 2009, Gaussian, Inc.),
 the Gaussian(R) 03 system (copyright 2003, Gaussian, Inc.),
 the Gaussian(R) 98 system (copyright 1998, Gaussian, Inc.),
 the Gaussian(R) 94 system (copyright 1995, Gaussian, Inc.),
 the Gaussian 92(TM) system (copyright 1992, Gaussian, Inc.),
 the Gaussian 90(TM) system (copyright 1990, Gaussian, Inc.),
 the Gaussian 88(TM) system (copyright 1988, Gaussian, Inc.),
 the Gaussian 86(TM) system (copyright 1986, Carnegie Mellon
 University), and the Gaussian 82(TM) system (copyright 1983,
 Carnegie Mellon University). Gaussian is a federally registered
 trademark of Gaussian, Inc.
  
 This software contains proprietary and confidential information,
 including trade secrets, belonging to Gaussian, Inc.
  
 This software is provided under written license and may be
 used, copied, transmitted, or stored only in accord with that
 written license.
  
 The following legend is applicable only to US Government
 contracts under FAR:
  
                    RESTRICTED RIGHTS LEGEND
  
 Use, reproduction and disclosure by the US Government is
 subject to restrictions as set forth in subparagraphs (a)
 and (c) of the Commercial Computer Software - Restricted
 Rights clause in FAR 52.227-19.
  
 Gaussian, Inc.
 340 Quinnipiac St., Bldg. 40, Wallingford CT 06492
  
  
 ---------------------------------------------------------------
 Warning -- This program may not be used in any manner that
 competes with the business of Gaussian, Inc. or will provide
 assistance to any competitor of Gaussian, Inc.  The licensee
 of this program is prohibited from giving any competitor of
 Gaussian, Inc. access to this program.  By using this program,
 the user acknowledges that Gaussian, Inc. is engaged in the
 business of creating and licensing software in the field of
 computational chemistry and represents and warrants to the
 licensee that it is not a competitor of Gaussian, Inc. and that
 it will not use this program in any manner prohibited above.
 ---------------------------------------------------------------
  

 Cite this work as:
 Gaussian 16, Revision A.03,
 M. J. Frisch, G. W. Trucks, H. B. Schlegel, G. E. Scuseria, 
 M. A. Robb, J. R. Cheeseman, G. Scalmani, V. Barone, 
 G. A. Petersson, H. Nakatsuji, X. Li, M. Caricato, A. V. Marenich, 
 J. Bloino, B. G. Janesko, R. Gomperts, B. Mennucci, H. P. Hratchian, 
 J. V. Ortiz, A. F. Izmaylov, J. L. Sonnenberg, D. Williams-Young, 
 F. Ding, F. Lipparini, F. Egidi, J. Goings, B. Peng, A. Petrone, 
 T. Henderson, D. Ranasinghe, V. G. Zakrzewski, J. Gao, N. Rega, 
 G. Zheng, W. Liang, M. Hada, M. Ehara, K. Toyota, R. Fukuda, 
 J. Hasegawa, M. Ishida, T. Nakajima, Y. Honda, O. Kitao, H. Nakai, 
 T. Vreven, K. Throssell, J. A. Montgomery, Jr., J. E. Peralta, 
 F. Ogliaro, M. J. Bearpark, J. J. Heyd, E. N. Brothers, K. N. Kudin, 
 V. N. Staroverov, T. A. Keith, R. Kobayashi, J. Normand, 
 K. Raghavachari, A. P. Rendell, J. C. Burant, S. S. Iyengar, 
 J. Tomasi, M. Cossi, J. M. Millam, M. Klene, C. Adamo, R. Cammi, 
 J. W. Ochterski, R. L. Martin, K. Morokuma, O. Farkas, 
 J. B. Foresman, and D. J. Fox, Gaussian, Inc., Wallingford CT, 2016.
 
 ******************************************
 Gaussian 16:  ES64L-G16RevA.03 25-Dec-2016
                20-Feb-2021 
 ******************************************
 %nprocshared=16
 Will use up to   16 processors via shared memory.
 %mem=48GB
 ----------------------------------------------------------------------
 # wB97XD def2tzvp, opt=(ts, noeigen, calcfc, maxcycles=70, maxstep=5),
  freq=noraman, scrf=(iefpcm, solvent=water)
 ----------------------------------------------------------------------
 1/5=1,6=70,8=5,10=4,11=1,18=20,26=3,38=1/1,3;
 2/9=110,12=2,17=6,18=5,40=1/2;
 3/5=44,7=101,11=2,25=1,30=1,70=2201,71=2,72=1,74=-58,140=1/1,2,3;
 4//1;
 5/5=2,38=5,53=1/2;
 8/6=4,10=90,11=11/1;
 11/6=1,8=1,9=11,15=111,16=1/1,2,10;
 10/6=1,13=1/2;
 6/7=2,8=2,9=2,10=2,28=1/1;
 7/10=1,18=20,25=1/1,2,3,16;
 1/5=1,6=70,8=5,10=4,11=1,18=20,26=3/3(2);
 2/9=110/2;
 99//99;
 2/9=110/2;
 3/5=44,7=101,11=2,25=1,30=1,70=2205,71=1,72=1,74=-58/1,2,3;
 4/5=5,16=3,69=1/1;
 5/5=2,38=5,53=1/2;
 7//1,2,3,16;
 1/5=1,6=70,8=5,11=1,18=20,26=3/3(-5);
 2/9=110/2;
 6/7=2,8=2,9=2,10=2,19=2,28=1/1;
 99/9=1/99;
 ------------------------
 2_iteration/TS-629-2.out
 ------------------------
 Symbolic Z-matrix:
 Charge =  0 Multiplicity = 1
 C                     0.86272   0.28841  -0.06299 
 C                     0.8894    1.74743   0.04552 
 O                    -0.04951   2.39874   0.51538 
 C                    -0.27238  -0.47024   0.18787 
 C                     0.12001  -0.08989   2.926 
 H                    -0.74878   0.54222   3.08782 
 H                     0.44152  -0.5253    3.87099 
 H                     0.92495   0.51794   2.51491 
 N                    -0.1989   -1.13352   1.95468 
 H                     0.56772  -1.7944    1.88431 
 H                    -1.02451  -1.66785   2.2041 
 Br                   -0.34908  -2.27494  -0.65757 
 C                    -1.63216   0.14909   0.00802 
 C                    -1.90607   0.7027   -1.24378 
 C                    -3.14259   1.25255  -1.52145 
 C                    -4.13976   1.2541   -0.55423 
 C                    -3.88242   0.693     0.68415 
 C                    -2.64008   0.13758   0.96195 
 H                    -1.1321    0.70322  -2.00028 
 H                    -3.32953   1.68156  -2.49764 
 H                    -5.10934   1.68493  -0.76838 
 H                    -4.64957   0.68156   1.44769 
 H                    -2.4905   -0.28632   1.94305 
 Br                    2.54819  -0.60898  -0.23965 
 N                     1.99925   2.38863  -0.39746 
 C                     2.11015   3.82611  -0.34378 
 H                     2.72866   1.86523  -0.84455 
 H                     3.11404   4.10759  -0.65504 
 H                     1.3883    4.31539  -1.00245 
 H                     1.94282   4.19045   0.67077 
 
 Add virtual bond connecting atoms N9         and C4         Dist= 3.57D+00.
 Add virtual bond connecting atoms H11        and H23        Dist= 3.84D+00.

 GradGradGradGradGradGradGradGradGradGradGradGradGradGradGradGradGradGrad
 Berny optimization.
 Initialization pass.
                           ----------------------------
                           !    Initial Parameters    !
                           ! (Angstroms and Degrees)  !
 --------------------------                            --------------------------
 ! Name  Definition              Value          Derivative Info.                !
 --------------------------------------------------------------------------------
 ! R1    R(1,2)                  1.4633         calculate D2E/DX2 analytically  !
 ! R2    R(1,4)                  1.3881         calculate D2E/DX2 analytically  !
 ! R3    R(1,24)                 1.9176         calculate D2E/DX2 analytically  !
 ! R4    R(2,3)                  1.2355         calculate D2E/DX2 analytically  !
 ! R5    R(2,25)                 1.3561         calculate D2E/DX2 analytically  !
 ! R6    R(4,9)                  1.8886         calculate D2E/DX2 analytically  !
 ! R7    R(4,12)                 1.9944         calculate D2E/DX2 analytically  !
 ! R8    R(4,13)                 1.505          calculate D2E/DX2 analytically  !
 ! R9    R(5,6)                  1.0865         calculate D2E/DX2 analytically  !
 ! R10   R(5,7)                  1.089          calculate D2E/DX2 analytically  !
 ! R11   R(5,8)                  1.0892         calculate D2E/DX2 analytically  !
 ! R12   R(5,9)                  1.4609         calculate D2E/DX2 analytically  !
 ! R13   R(9,10)                 1.0146         calculate D2E/DX2 analytically  !
 ! R14   R(9,11)                 1.0146         calculate D2E/DX2 analytically  !
 ! R15   R(11,23)                2.0312         calculate D2E/DX2 analytically  !
 ! R16   R(13,14)                1.3959         calculate D2E/DX2 analytically  !
 ! R17   R(13,18)                1.3878         calculate D2E/DX2 analytically  !
 ! R18   R(14,15)                1.3815         calculate D2E/DX2 analytically  !
 ! R19   R(14,19)                1.0823         calculate D2E/DX2 analytically  !
 ! R20   R(15,16)                1.3892         calculate D2E/DX2 analytically  !
 ! R21   R(15,20)                1.0826         calculate D2E/DX2 analytically  !
 ! R22   R(16,17)                1.3837         calculate D2E/DX2 analytically  !
 ! R23   R(16,21)                1.0824         calculate D2E/DX2 analytically  !
 ! R24   R(17,18)                1.3889         calculate D2E/DX2 analytically  !
 ! R25   R(17,22)                1.0824         calculate D2E/DX2 analytically  !
 ! R26   R(18,23)                1.0792         calculate D2E/DX2 analytically  !
 ! R27   R(25,26)                1.4428         calculate D2E/DX2 analytically  !
 ! R28   R(25,27)                1.0029         calculate D2E/DX2 analytically  !
 ! R29   R(26,28)                1.0881         calculate D2E/DX2 analytically  !
 ! R30   R(26,29)                1.0928         calculate D2E/DX2 analytically  !
 ! R31   R(26,30)                1.0909         calculate D2E/DX2 analytically  !
 ! A1    A(2,1,4)              123.1228         calculate D2E/DX2 analytically  !
 ! A2    A(2,1,24)             117.2199         calculate D2E/DX2 analytically  !
 ! A3    A(4,1,24)             118.6598         calculate D2E/DX2 analytically  !
 ! A4    A(1,2,3)              122.6807         calculate D2E/DX2 analytically  !
 ! A5    A(1,2,25)             117.5245         calculate D2E/DX2 analytically  !
 ! A6    A(3,2,25)             119.7945         calculate D2E/DX2 analytically  !
 ! A7    A(1,4,9)              109.2191         calculate D2E/DX2 analytically  !
 ! A8    A(1,4,12)             116.704          calculate D2E/DX2 analytically  !
 ! A9    A(1,4,13)             119.4934         calculate D2E/DX2 analytically  !
 ! A10   A(9,4,12)              94.604          calculate D2E/DX2 analytically  !
 ! A11   A(9,4,13)             106.9462         calculate D2E/DX2 analytically  !
 ! A12   A(12,4,13)            106.6771         calculate D2E/DX2 analytically  !
 ! A13   A(6,5,7)              109.8423         calculate D2E/DX2 analytically  !
 ! A14   A(6,5,8)              108.8124         calculate D2E/DX2 analytically  !
 ! A15   A(6,5,9)              109.8809         calculate D2E/DX2 analytically  !
 ! A16   A(7,5,8)              109.4172         calculate D2E/DX2 analytically  !
 ! A17   A(7,5,9)              110.8403         calculate D2E/DX2 analytically  !
 ! A18   A(8,5,9)              108.0009         calculate D2E/DX2 analytically  !
 ! A19   A(4,9,5)              112.3082         calculate D2E/DX2 analytically  !
 ! A20   A(4,9,10)             101.1437         calculate D2E/DX2 analytically  !
 ! A21   A(4,9,11)             112.537          calculate D2E/DX2 analytically  !
 ! A22   A(5,9,10)             110.2724         calculate D2E/DX2 analytically  !
 ! A23   A(5,9,11)             112.9799         calculate D2E/DX2 analytically  !
 ! A24   A(10,9,11)            106.79           calculate D2E/DX2 analytically  !
 ! A25   A(9,11,23)            101.3913         calculate D2E/DX2 analytically  !
 ! A26   A(4,13,14)            116.5946         calculate D2E/DX2 analytically  !
 ! A27   A(4,13,18)            124.7954         calculate D2E/DX2 analytically  !
 ! A28   A(14,13,18)           118.5018         calculate D2E/DX2 analytically  !
 ! A29   A(13,14,15)           120.9136         calculate D2E/DX2 analytically  !
 ! A30   A(13,14,19)           119.1239         calculate D2E/DX2 analytically  !
 ! A31   A(15,14,19)           119.9614         calculate D2E/DX2 analytically  !
 ! A32   A(14,15,16)           120.1984         calculate D2E/DX2 analytically  !
 ! A33   A(14,15,20)           119.574          calculate D2E/DX2 analytically  !
 ! A34   A(16,15,20)           120.2276         calculate D2E/DX2 analytically  !
 ! A35   A(15,16,17)           119.2861         calculate D2E/DX2 analytically  !
 ! A36   A(15,16,21)           120.3769         calculate D2E/DX2 analytically  !
 ! A37   A(17,16,21)           120.3362         calculate D2E/DX2 analytically  !
 ! A38   A(16,17,18)           120.4987         calculate D2E/DX2 analytically  !
 ! A39   A(16,17,22)           120.251          calculate D2E/DX2 analytically  !
 ! A40   A(18,17,22)           119.2503         calculate D2E/DX2 analytically  !
 ! A41   A(13,18,17)           120.5857         calculate D2E/DX2 analytically  !
 ! A42   A(13,18,23)           121.8359         calculate D2E/DX2 analytically  !
 ! A43   A(17,18,23)           117.574          calculate D2E/DX2 analytically  !
 ! A44   A(11,23,18)           118.9492         calculate D2E/DX2 analytically  !
 ! A45   A(2,25,26)            121.4555         calculate D2E/DX2 analytically  !
 ! A46   A(2,25,27)            119.6078         calculate D2E/DX2 analytically  !
 ! A47   A(26,25,27)           118.7275         calculate D2E/DX2 analytically  !
 ! A48   A(25,26,28)           108.5436         calculate D2E/DX2 analytically  !
 ! A49   A(25,26,29)           111.8933         calculate D2E/DX2 analytically  !
 ! A50   A(25,26,30)           110.8287         calculate D2E/DX2 analytically  !
 ! A51   A(28,26,29)           108.7345         calculate D2E/DX2 analytically  !
 ! A52   A(28,26,30)           108.7334         calculate D2E/DX2 analytically  !
 ! A53   A(29,26,30)           108.0404         calculate D2E/DX2 analytically  !
 ! D1    D(4,1,2,3)              8.5532         calculate D2E/DX2 analytically  !
 ! D2    D(4,1,2,25)          -171.2748         calculate D2E/DX2 analytically  !
 ! D3    D(24,1,2,3)          -159.8494         calculate D2E/DX2 analytically  !
 ! D4    D(24,1,2,25)           20.3225         calculate D2E/DX2 analytically  !
 ! D5    D(2,1,4,9)            -97.28           calculate D2E/DX2 analytically  !
 ! D6    D(2,1,4,12)           157.0248         calculate D2E/DX2 analytically  !
 ! D7    D(2,1,4,13)            26.2116         calculate D2E/DX2 analytically  !
 ! D8    D(24,1,4,9)            70.9648         calculate D2E/DX2 analytically  !
 ! D9    D(24,1,4,12)          -34.7303         calculate D2E/DX2 analytically  !
 ! D10   D(24,1,4,13)         -165.5435         calculate D2E/DX2 analytically  !
 ! D11   D(1,2,25,26)          179.3464         calculate D2E/DX2 analytically  !
 ! D12   D(1,2,25,27)            4.6695         calculate D2E/DX2 analytically  !
 ! D13   D(3,2,25,26)           -0.4869         calculate D2E/DX2 analytically  !
 ! D14   D(3,2,25,27)         -175.1638         calculate D2E/DX2 analytically  !
 ! D15   D(1,4,9,5)             48.9491         calculate D2E/DX2 analytically  !
 ! D16   D(1,4,9,10)           -68.6017         calculate D2E/DX2 analytically  !
 ! D17   D(1,4,9,11)           177.7889         calculate D2E/DX2 analytically  !
 ! D18   D(12,4,9,5)           169.3149         calculate D2E/DX2 analytically  !
 ! D19   D(12,4,9,10)           51.7642         calculate D2E/DX2 analytically  !
 ! D20   D(12,4,9,11)          -61.8453         calculate D2E/DX2 analytically  !
 ! D21   D(13,4,9,5)           -81.6885         calculate D2E/DX2 analytically  !
 ! D22   D(13,4,9,10)          160.7608         calculate D2E/DX2 analytically  !
 ! D23   D(13,4,9,11)           47.1513         calculate D2E/DX2 analytically  !
 ! D24   D(1,4,13,14)           55.6863         calculate D2E/DX2 analytically  !
 ! D25   D(1,4,13,18)         -128.1653         calculate D2E/DX2 analytically  !
 ! D26   D(9,4,13,14)         -179.7234         calculate D2E/DX2 analytically  !
 ! D27   D(9,4,13,18)           -3.575          calculate D2E/DX2 analytically  !
 ! D28   D(12,4,13,14)         -79.4189         calculate D2E/DX2 analytically  !
 ! D29   D(12,4,13,18)          96.7295         calculate D2E/DX2 analytically  !
 ! D30   D(6,5,9,4)             74.9996         calculate D2E/DX2 analytically  !
 ! D31   D(6,5,9,10)          -173.0224         calculate D2E/DX2 analytically  !
 ! D32   D(6,5,9,11)           -53.6084         calculate D2E/DX2 analytically  !
 ! D33   D(7,5,9,4)           -163.4083         calculate D2E/DX2 analytically  !
 ! D34   D(7,5,9,10)           -51.4303         calculate D2E/DX2 analytically  !
 ! D35   D(7,5,9,11)            67.9837         calculate D2E/DX2 analytically  !
 ! D36   D(8,5,9,4)            -43.5591         calculate D2E/DX2 analytically  !
 ! D37   D(8,5,9,10)            68.4189         calculate D2E/DX2 analytically  !
 ! D38   D(8,5,9,11)          -172.1671         calculate D2E/DX2 analytically  !
 ! D39   D(4,9,11,23)          -59.2553         calculate D2E/DX2 analytically  !
 ! D40   D(5,9,11,23)           69.2342         calculate D2E/DX2 analytically  !
 ! D41   D(10,9,11,23)        -169.3624         calculate D2E/DX2 analytically  !
 ! D42   D(9,11,23,18)          61.2059         calculate D2E/DX2 analytically  !
 ! D43   D(4,13,14,15)         177.7193         calculate D2E/DX2 analytically  !
 ! D44   D(4,13,14,19)          -2.6686         calculate D2E/DX2 analytically  !
 ! D45   D(18,13,14,15)          1.3181         calculate D2E/DX2 analytically  !
 ! D46   D(18,13,14,19)       -179.0698         calculate D2E/DX2 analytically  !
 ! D47   D(4,13,18,17)        -177.54           calculate D2E/DX2 analytically  !
 ! D48   D(4,13,18,23)           3.2503         calculate D2E/DX2 analytically  !
 ! D49   D(14,13,18,17)         -1.4592         calculate D2E/DX2 analytically  !
 ! D50   D(14,13,18,23)        179.3311         calculate D2E/DX2 analytically  !
 ! D51   D(13,14,15,16)         -0.4139         calculate D2E/DX2 analytically  !
 ! D52   D(13,14,15,20)        179.6225         calculate D2E/DX2 analytically  !
 ! D53   D(19,14,15,16)        179.9772         calculate D2E/DX2 analytically  !
 ! D54   D(19,14,15,20)          0.0136         calculate D2E/DX2 analytically  !
 ! D55   D(14,15,16,17)         -0.3674         calculate D2E/DX2 analytically  !
 ! D56   D(14,15,16,21)        179.9451         calculate D2E/DX2 analytically  !
 ! D57   D(20,15,16,17)        179.596          calculate D2E/DX2 analytically  !
 ! D58   D(20,15,16,21)         -0.0916         calculate D2E/DX2 analytically  !
 ! D59   D(15,16,17,18)          0.2231         calculate D2E/DX2 analytically  !
 ! D60   D(15,16,17,22)       -179.712          calculate D2E/DX2 analytically  !
 ! D61   D(21,16,17,18)        179.9108         calculate D2E/DX2 analytically  !
 ! D62   D(21,16,17,22)         -0.0243         calculate D2E/DX2 analytically  !
 ! D63   D(16,17,18,13)          0.7075         calculate D2E/DX2 analytically  !
 ! D64   D(16,17,18,23)        179.9501         calculate D2E/DX2 analytically  !
 ! D65   D(22,17,18,13)       -179.3567         calculate D2E/DX2 analytically  !
 ! D66   D(22,17,18,23)         -0.1141         calculate D2E/DX2 analytically  !
 ! D67   D(13,18,23,11)        -22.7631         calculate D2E/DX2 analytically  !
 ! D68   D(17,18,23,11)        158.0044         calculate D2E/DX2 analytically  !
 ! D69   D(2,25,26,28)         174.3751         calculate D2E/DX2 analytically  !
 ! D70   D(2,25,26,29)         -65.6313         calculate D2E/DX2 analytically  !
 ! D71   D(2,25,26,30)          55.031          calculate D2E/DX2 analytically  !
 ! D72   D(27,25,26,28)        -10.9024         calculate D2E/DX2 analytically  !
 ! D73   D(27,25,26,29)        109.0912         calculate D2E/DX2 analytically  !
 ! D74   D(27,25,26,30)       -130.2465         calculate D2E/DX2 analytically  !
 --------------------------------------------------------------------------------
 Trust Radius=5.00D-02 FncErr=1.00D-07 GrdErr=1.00D-06 EigMax=2.50D+02 EigMin=1.00D-04
 Number of steps in this run=     70 maximum allowed number of steps=    180.
 Search for a saddle point of order  1.
 GradGradGradGradGradGradGradGradGradGradGradGradGradGradGradGradGradGrad

                          Input orientation:                          
 ---------------------------------------------------------------------
 Center     Atomic      Atomic             Coordinates (Angstroms)
 Number     Number       Type             X           Y           Z
 ---------------------------------------------------------------------
      1          6           0        0.862720    0.288410   -0.062990
      2          6           0        0.889400    1.747430    0.045520
      3          8           0       -0.049510    2.398740    0.515380
      4          6           0       -0.272380   -0.470240    0.187870
      5          6           0        0.120010   -0.089890    2.926000
      6          1           0       -0.748780    0.542220    3.087820
      7          1           0        0.441520   -0.525300    3.870990
      8          1           0        0.924950    0.517940    2.514910
      9          7           0       -0.198900   -1.133520    1.954680
     10          1           0        0.567720   -1.794400    1.884310
     11          1           0       -1.024510   -1.667850    2.204100
     12         35           0       -0.349080   -2.274940   -0.657570
     13          6           0       -1.632160    0.149090    0.008020
     14          6           0       -1.906070    0.702700   -1.243780
     15          6           0       -3.142590    1.252550   -1.521450
     16          6           0       -4.139760    1.254100   -0.554230
     17          6           0       -3.882420    0.693000    0.684150
     18          6           0       -2.640080    0.137580    0.961950
     19          1           0       -1.132100    0.703220   -2.000280
     20          1           0       -3.329530    1.681560   -2.497640
     21          1           0       -5.109340    1.684930   -0.768380
     22          1           0       -4.649570    0.681560    1.447690
     23          1           0       -2.490500   -0.286320    1.943050
     24         35           0        2.548190   -0.608980   -0.239650
     25          7           0        1.999250    2.388630   -0.397460
     26          6           0        2.110150    3.826110   -0.343780
     27          1           0        2.728660    1.865230   -0.844550
     28          1           0        3.114040    4.107590   -0.655040
     29          1           0        1.388300    4.315390   -1.002450
     30          1           0        1.942820    4.190450    0.670770
 ---------------------------------------------------------------------
                    Distance matrix (angstroms):
                    1          2          3          4          5
     1  C    0.000000
     2  C    1.463293   0.000000
     3  O    2.370689   1.235526   0.000000
     4  C    1.388140   2.507600   2.896201   0.000000
     5  C    3.103029   3.502124   3.468877   2.792130   0.000000
     6  H    3.548092   3.659475   3.248552   3.108334   1.086529
     7  H    4.039274   4.472149   4.477861   3.752074   1.089016
     8  H    2.588846   2.758767   2.912920   2.797358   1.089211
     9  N    2.686990   3.623419   3.817167   1.888639   1.460935
    10  H    2.866548   4.003647   4.453916   2.310211   2.047173
    11  H    3.539532   4.470644   4.509940   2.462753   2.078707
    12  Br   2.897024   4.267040   4.827923   1.994391   4.223324
    13  C    2.499776   2.985693   2.796984   1.504964   3.412011
    14  C    3.038437   3.250909   3.068878   2.468674   4.703219
    15  C    4.370261   4.353992   3.876799   3.758708   5.676840
    16  C    5.118465   5.088765   4.380001   4.298917   5.662504
    17  C    4.820608   4.928482   4.198718   3.825155   4.653843
    18  C    3.652788   3.986062   3.467466   2.564108   3.395192
    19  H    2.811488   3.059761   3.221077   2.627571   5.144418
    20  H    5.044140   4.926598   4.511227   4.603083   6.667326
    21  H    6.173601   6.054025   5.268723   5.381018   6.644135
    22  H    5.729054   5.812258   4.997846   4.698253   5.052666
    23  H    3.949506   4.377269   3.899515   2.834526   2.796344
    24  Br   1.917636   2.895786   4.045305   2.856158   4.023289
    25  N    2.411326   1.356147   2.242944   3.698115   4.551922
    26  C    3.761681   2.441863   2.727576   4.941429   5.476055
    27  H    2.564942   2.046699   3.138833   3.940375   4.984435
    28  H    4.472706   3.318157   3.781283   5.756289   6.277492
    29  H    4.168379   2.818078   2.836310   5.203554   6.037199
    30  H    4.114722   2.732943   2.683980   5.182889   5.170107
                    6          7          8          9         10
     6  H    0.000000
     7  H    1.780384   0.000000
     8  H    1.769234   1.777922   0.000000
     9  N    2.096301   2.110051   2.074661   0.000000
    10  H    2.939626   2.360813   2.423259   1.014604   0.000000
    11  H    2.396121   2.496635   2.945280   1.014569   1.628950
    12  Br   4.703626   4.918754   4.414517   2.854688   2.744557
    13  C    3.228015   4.435931   3.599911   2.736569   3.483833
    14  C    4.486405   5.760211   4.709200   4.064023   4.705326
    15  C    5.242162   6.714537   5.777260   5.142190   5.886383
    16  C    5.026932   6.613393   5.967649   5.246498   6.115570
    17  C    3.952223   5.507873   5.147148   4.303341   5.237489
    18  C    2.874034   4.289310   3.907147   2.925845   3.856589
    19  H    5.105058   6.201399   4.965151   4.459393   4.921131
    20  H    6.257454   7.723373   6.676846   6.127697   6.817063
    21  H    5.932162   7.564451   6.968107   6.282606   7.167392
    22  H    4.233864   5.766116   5.678116   4.833220   5.791470
    23  H    2.242892   3.517216   3.555159   2.443218   3.410347
    24  Br   4.823622   4.619786   3.390053   3.554818   3.136668
    25  N    4.807086   5.397886   3.624293   4.771789   4.975288
    26  C    5.543762   6.283580   4.529989   5.934017   6.239680
    27  H    5.413546   5.760379   4.044074   5.039722   5.050666
    28  H    6.453080   7.006496   5.265575   6.727217   6.911261
    29  H    5.961060   6.933909   5.196840   6.399566   6.807075
    30  H    5.137745   5.893523   4.233703   5.880480   6.259553
                   11         12         13         14         15
    11  H    0.000000
    12  Br   3.002319   0.000000
    13  C    2.914323   2.822273   0.000000
    14  C    4.276042   3.410894   1.395892   0.000000
    15  C    5.186012   4.581831   2.416258   1.381455   0.000000
    16  C    5.084384   5.180160   2.797361   2.401852   1.389196
    17  C    4.006434   4.805556   2.411775   2.760972   2.392721
    18  C    2.722605   3.700240   1.387810   2.392358   2.768203
    19  H    4.828080   3.359379   2.142519   1.082276   2.138483
    20  H    6.215949   5.284206   3.392324   2.134612   1.082563
    21  H    6.063218   6.192974   3.879740   3.384039   2.149924
    22  H    4.385538   5.627364   3.385401   3.843338   3.378285
    23  H    2.031231   3.911971   2.161173   3.387566   3.846570
    24  Br   4.456154   3.368123   4.255742   4.750707   6.123176
    25  N    5.689136   5.227925   4.285685   4.337066   5.384473
    26  C    6.819192   6.585521   5.258243   5.166789   5.966690
    27  H    5.988590   5.162214   4.763272   4.794954   5.941813
    28  H    7.658850   7.261535   6.215769   6.094374   6.931619
    29  H    7.204358   6.824213   5.244262   4.895165   5.493570
    30  H    6.743577   6.987028   5.436204   5.535689   6.268850
                   16         17         18         19         20
    16  C    0.000000
    17  C    1.383706   0.000000
    18  C    2.407168   1.388911   0.000000
    19  H    3.382388   3.843245   3.371759   0.000000
    20  H    2.148496   3.377384   3.850711   2.456260   0.000000
    21  H    1.082386   2.144552   3.389038   4.277823   2.481547
    22  H    2.143687   1.082425   2.137734   4.925603   4.278801
    23  H    3.365911   2.116917   1.079177   4.286524   4.929123
    24  Br   6.949727   6.625806   5.377670   4.285583   6.700200
    25  N    6.244932   6.216034   5.332786   3.900640   5.771187
    26  C    6.761723   6.839877   6.154256   4.796730   6.231238
    27  H    6.901663   6.886031   5.922127   4.194216   6.282365
    28  H    7.795523   7.899576   7.175342   5.606167   7.127439
    29  H    6.334970   6.614138   6.127056   4.516177   5.606298
    30  H    6.864441   6.794539   6.124828   5.361941   6.643119
                   21         22         23         24         25
    21  H    0.000000
    22  H    2.475703   0.000000
    23  H    4.253940   2.417386   0.000000
    24  Br   8.011201   7.504689   5.500608   0.000000
    25  N    7.152959   7.108127   5.726360   3.051541   0.000000
    26  C    7.542279   7.667553   6.580855   4.457886   1.442751
    27  H    7.840443   7.816247   6.295992   2.553466   1.002934
    28  H    8.573570   8.742585   7.580725   4.768518   2.064928
    29  H    7.013803   7.460816   6.700507   5.116310   2.109900
    30  H    7.621138   7.508363   6.427635   4.922384   2.095437
                   26         27         28         29         30
    26  C    0.000000
    27  H    2.116217   0.000000
    28  H    1.088076   2.283114   0.000000
    29  H    1.092844   2.797281   1.772584   0.000000
    30  H    1.090896   2.884508   1.770987   1.767135   0.000000
 Stoichiometry    C11H14Br2N2O
 Framework group  C1[X(C11H14Br2N2O)]
 Deg. of freedom    84
 Full point group                 C1      NOp   1
 Largest Abelian subgroup         C1      NOp   1
 Largest concise Abelian subgroup C1      NOp   1
                         Standard orientation:                         
 ---------------------------------------------------------------------
 Center     Atomic      Atomic             Coordinates (Angstroms)
 Number     Number       Type             X           Y           Z
 ---------------------------------------------------------------------
      1          6           0        0.862721    0.288411   -0.062989
      2          6           0        0.889402    1.747431    0.045521
      3          8           0       -0.049508    2.398741    0.515381
      4          6           0       -0.272379   -0.470238    0.187871
      5          6           0        0.120011   -0.089889    2.926001
      6          1           0       -0.748779    0.542222    3.087821
      7          1           0        0.441521   -0.525299    3.870991
      8          1           0        0.924951    0.517941    2.514911
      9          7           0       -0.198900   -1.133518    1.954681
     10          1           0        0.567720   -1.794399    1.884311
     11          1           0       -1.024510   -1.667848    2.204101
     12         35           0       -0.349080   -2.274938   -0.657569
     13          6           0       -1.632159    0.149092    0.008021
     14          6           0       -1.906069    0.702703   -1.243779
     15          6           0       -3.142588    1.252553   -1.521449
     16          6           0       -4.139758    1.254104   -0.554229
     17          6           0       -3.882419    0.693004    0.684151
     18          6           0       -2.640079    0.137583    0.961951
     19          1           0       -1.132099    0.703222   -2.000279
     20          1           0       -3.329528    1.681563   -2.497639
     21          1           0       -5.109338    1.684934   -0.768379
     22          1           0       -4.649569    0.681564    1.447691
     23          1           0       -2.490499   -0.286317    1.943051
     24         35           0        2.548191   -0.608980   -0.239649
     25          7           0        1.999252    2.388630   -0.397459
     26          6           0        2.110153    3.826110   -0.343779
     27          1           0        2.728662    1.865230   -0.844549
     28          1           0        3.114043    4.107590   -0.655039
     29          1           0        1.388303    4.315391   -1.002449
     30          1           0        1.942823    4.190450    0.670771
 ---------------------------------------------------------------------
 Rotational constants (GHZ):           0.3928121           0.2914632           0.2134883
 Standard basis: def2TZVP (5D, 7F)
 There are   698 symmetry adapted cartesian basis functions of A   symmetry.
 There are   614 symmetry adapted basis functions of A   symmetry.
   614 basis functions,  1054 primitive gaussians,   698 cartesian basis functions
    86 alpha electrons       86 beta electrons
       nuclear repulsion energy      2030.9020446958 Hartrees.
 NAtoms=   30 NActive=   30 NUniq=   30 SFac= 1.00D+00 NAtFMM=   60 NAOKFM=F Big=F
 Integral buffers will be    131072 words long.
 Raffenetti 2 integral format.
 Two-electron integral symmetry is turned on.
 Nuclear repulsion after empirical dispersion term =     2030.8770549542 Hartrees.
 Force inversion solution in PCM.
 ------------------------------------------------------------------------------
 Polarizable Continuum Model (PCM)
 =================================
 Model                : PCM.
 Atomic radii         : UFF (Universal Force Field).
 Polarization charges : Total charges.
 Charge compensation  : None.
 Solution method      : Matrix inversion.
 Cavity type          : Scaled VdW (van der Waals Surface) (Alpha=1.100).
 Cavity algorithm     : GePol (No added spheres)
                        Default sphere list used, NSphG=   30.
                        Lebedev-Laikov grids with approx.  5.0 points / Ang**2.
                        Smoothing algorithm: York/Karplus (Gamma=1.0000).
                        Polarization charges: spherical gaussians, with
                                              point-specific exponents (IZeta= 3).
                        Self-potential: point-specific (ISelfS= 7).
                        Self-field    : sphere-specific E.n sum rule (ISelfD= 2).
 1st derivatives      : Analytical E(r).r(x)/FMM algorithm (CHGder, D1EAlg=3).
                        Cavity 1st derivative terms included.
 2nd derivatives      : Analytical E(r).r(xy)/FMM algorithm (CHGder, D2EAlg=3).
                        Cavity 2nd derivative terms included.
 Solvent              : Water, Eps=  78.355300 Eps(inf)=   1.777849
 ------------------------------------------------------------------------------
 One-electron integrals computed using PRISM.
   1 Symmetry operations used in ECPInt.
 ECPInt:  NShTT=   29403 NPrTT=   98385 LenC2=   27073 LenP2D=   64029.
 LDataN:  DoStor=T MaxTD1= 6 Len=  172
 NBasis=   614 RedAO= T EigKep=  6.96D-06  NBF=   614
 NBsUse=   614 1.00D-06 EigRej= -1.00D+00 NBFU=   614
 ExpMin= 9.52D-02 ExpMax= 5.65D+05 ExpMxC= 5.46D+03 IAcc=3 IRadAn=         5 AccDes= 0.00D+00
 Harris functional with IExCor= 4639 and IRadAn=       5 diagonalized for initial guess.
 HarFok:  IExCor= 4639 AccDes= 0.00D+00 IRadAn=         5 IDoV= 1 UseB2=F ITyADJ=14
 ICtDFT=  3500011 ScaDFX=  1.000000  1.000000  1.000000  1.000000
 FoFCou: FMM=F IPFlag=           0 FMFlag=      100000 FMFlg1=           0
         NFxFlg=           0 DoJE=T BraDBF=F KetDBF=T FulRan=T
         wScrn=  0.000000 ICntrl=       500 IOpCl=  0 I1Cent=   200000004 NGrid=           0
         NMat0=    1 NMatS0=      1 NMatT0=    0 NMatD0=    1 NMtDS0=    0 NMtDT0=    0
 Petite list used in FoFCou.
 Requested convergence on RMS density matrix=1.00D-08 within 128 cycles.
 Requested convergence on MAX density matrix=1.00D-06.
 Requested convergence on             energy=1.00D-06.
 No special actions if energy rises.
 Inv3:  Mode=1 IEnd=    17395392.
 Iteration    1 A*A^-1 deviation from unit magnitude is 5.55D-15 for   2398.
 Iteration    1 A*A^-1 deviation from orthogonality  is 1.51D-15 for   2386   2279.
 Iteration    1 A^-1*A deviation from unit magnitude is 5.55D-15 for   2398.
 Iteration    1 A^-1*A deviation from orthogonality  is 2.60D-15 for   1428     80.
 Error on total polarization charges =  0.01699
 SCF Done:  E(RwB97XD) =  -5760.75027916     A.U. after   15 cycles
            NFock= 15  Conv=0.81D-08     -V/T= 2.0018
 DoSCS=F DFT=T ScalE2(SS,OS)=  1.000000  1.000000
 Range of M.O.s used for correlation:     1   614
 NBasis=   614 NAE=    86 NBE=    86 NFC=     0 NFV=     0
 NROrb=    614 NOA=    86 NOB=    86 NVA=   528 NVB=   528

 **** Warning!!: The largest alpha MO coefficient is  0.57843865D+02

   1 Symmetry operations used in ECPInt.
 ECPInt:  NShTT=   29403 NPrTT=   98385 LenC2=   27073 LenP2D=   64029.
 LDataN:  DoStor=T MaxTD1= 7 Len=  274
 Symmetrizing basis deriv contribution to polar:
 IMax=3 JMax=2 DiffMx= 0.00D+00
 G2DrvN: will do    31 centers at a time, making    1 passes.
 Calling FoFCou, ICntrl=  3107 FMM=F I1Cent=   0 AccDes= 0.00D+00.
 NEqPCM:  Using equilibrium solvation (IEInf=0, Eps=  78.3553, EpsInf=   1.7778)
 G2PCM: DoFxE=T DoFxN=T DoGrad=T DoDP/DQ/DG/TGxP=FFFF NFrqRd=   0 IEInf=0 SqF1=F DoCFld=F IF1Alg=4.
 End of G2Drv F.D. properties file   721 does not exist.
 End of G2Drv F.D. properties file   722 does not exist.
 End of G2Drv F.D. properties file   788 does not exist.
          IDoAtm=111111111111111111111111111111
 NEqPCM:  Using equilibrium solvation (IEInf=0, Eps=  78.3553, EpsInf=   1.7778)
          Differentiating once with respect to nuclear coordinates.
 CalDSu exits because no D1Ps are significant.
          There are    93 degrees of freedom in the 1st order CPHF.  IDoFFX=6 NUNeed=     0.
     87 vectors produced by pass  0 Test12= 4.88D-14 1.08D-09 XBig12= 1.28D-01 9.87D-02.
 AX will form    87 AO Fock derivatives at one time.
     87 vectors produced by pass  1 Test12= 4.88D-14 1.08D-09 XBig12= 2.95D-02 3.05D-02.
     87 vectors produced by pass  2 Test12= 4.88D-14 1.08D-09 XBig12= 1.02D-03 5.90D-03.
     87 vectors produced by pass  3 Test12= 4.88D-14 1.08D-09 XBig12= 1.85D-05 4.81D-04.
     87 vectors produced by pass  4 Test12= 4.88D-14 1.08D-09 XBig12= 2.24D-07 3.45D-05.
     87 vectors produced by pass  5 Test12= 4.88D-14 1.08D-09 XBig12= 2.07D-09 4.47D-06.
     87 vectors produced by pass  6 Test12= 4.88D-14 1.08D-09 XBig12= 1.78D-11 3.38D-07.
     48 vectors produced by pass  7 Test12= 4.88D-14 1.08D-09 XBig12= 1.40D-13 2.93D-08.
      9 vectors produced by pass  8 Test12= 4.88D-14 1.08D-09 XBig12= 6.24D-15 1.09D-08.
      6 vectors produced by pass  9 Test12= 4.88D-14 1.08D-09 XBig12= 4.59D-15 7.28D-09.
      3 vectors produced by pass 10 Test12= 4.88D-14 1.08D-09 XBig12= 9.39D-16 3.00D-09.
      1 vectors produced by pass 11 Test12= 4.88D-14 1.08D-09 XBig12= 1.46D-16 1.36D-09.
 InvSVY:  IOpt=1 It=  1 EMax= 4.44D-16
 Solved reduced A of dimension   676 with    93 vectors.
 End of Minotr F.D. properties file   721 does not exist.
 End of Minotr F.D. properties file   722 does not exist.
 End of Minotr F.D. properties file   788 does not exist.

 **********************************************************************

            Population analysis using the SCF density.

 **********************************************************************

 Orbital symmetries:
       Occupied  (A) (A) (A) (A) (A) (A) (A) (A) (A) (A) (A) (A)
                 (A) (A) (A) (A) (A) (A) (A) (A) (A) (A) (A) (A)
                 (A) (A) (A) (A) (A) (A) (A) (A) (A) (A) (A) (A)
                 (A) (A) (A) (A) (A) (A) (A) (A) (A) (A) (A) (A)
                 (A) (A) (A) (A) (A) (A) (A) (A) (A) (A) (A) (A)
                 (A) (A) (A) (A) (A) (A) (A) (A) (A) (A) (A) (A)
                 (A) (A) (A) (A) (A) (A) (A) (A) (A) (A) (A) (A)
                 (A) (A)
       Virtual   (A) (A) (A) (A) (A) (A) (A) (A) (A) (A) (A) (A)
                 (A) (A) (A) (A) (A) (A) (A) (A) (A) (A) (A) (A)
                 (A) (A) (A) (A) (A) (A) (A) (A) (A) (A) (A) (A)
                 (A) (A) (A) (A) (A) (A) (A) (A) (A) (A) (A) (A)
                 (A) (A) (A) (A) (A) (A) (A) (A) (A) (A) (A) (A)
                 (A) (A) (A) (A) (A) (A) (A) (A) (A) (A) (A) (A)
                 (A) (A) (A) (A) (A) (A) (A) (A) (A) (A) (A) (A)
                 (A) (A) (A) (A) (A) (A) (A) (A) (A) (A) (A) (A)
                 (A) (A) (A) (A) (A) (A) (A) (A) (A) (A) (A) (A)
                 (A) (A) (A) (A) (A) (A) (A) (A) (A) (A) (A) (A)
                 (A) (A) (A) (A) (A) (A) (A) (A) (A) (A) (A) (A)
                 (A) (A) (A) (A) (A) (A) (A) (A) (A) (A) (A) (A)
                 (A) (A) (A) (A) (A) (A) (A) (A) (A) (A) (A) (A)
                 (A) (A) (A) (A) (A) (A) (A) (A) (A) (A) (A) (A)
                 (A) (A) (A) (A) (A) (A) (A) (A) (A) (A) (A) (A)
                 (A) (A) (A) (A) (A) (A) (A) (A) (A) (A) (A) (A)
                 (A) (A) (A) (A) (A) (A) (A) (A) (A) (A) (A) (A)
                 (A) (A) (A) (A) (A) (A) (A) (A) (A) (A) (A) (A)
                 (A) (A) (A) (A) (A) (A) (A) (A) (A) (A) (A) (A)
                 (A) (A) (A) (A) (A) (A) (A) (A) (A) (A) (A) (A)
                 (A) (A) (A) (A) (A) (A) (A) (A) (A) (A) (A) (A)
                 (A) (A) (A) (A) (A) (A) (A) (A) (A) (A) (A) (A)
                 (A) (A) (A) (A) (A) (A) (A) (A) (A) (A) (A) (A)
                 (A) (A) (A) (A) (A) (A) (A) (A) (A) (A) (A) (A)
                 (A) (A) (A) (A) (A) (A) (A) (A) (A) (A) (A) (A)
                 (A) (A) (A) (A) (A) (A) (A) (A) (A) (A) (A) (A)
                 (A) (A) (A) (A) (A) (A) (A) (A) (A) (A) (A) (A)
                 (A) (A) (A) (A) (A) (A) (A) (A) (A) (A) (A) (A)
                 (A) (A) (A) (A) (A) (A) (A) (A) (A) (A) (A) (A)
                 (A) (A) (A) (A) (A) (A) (A) (A) (A) (A) (A) (A)
                 (A) (A) (A) (A) (A) (A) (A) (A) (A) (A) (A) (A)
                 (A) (A) (A) (A) (A) (A) (A) (A) (A) (A) (A) (A)
                 (A) (A) (A) (A) (A) (A) (A) (A) (A) (A) (A) (A)
                 (A) (A) (A) (A) (A) (A) (A) (A) (A) (A) (A) (A)
                 (A) (A) (A) (A) (A) (A) (A) (A) (A) (A) (A) (A)
                 (A) (A) (A) (A) (A) (A) (A) (A) (A) (A) (A) (A)
                 (A) (A) (A) (A) (A) (A) (A) (A) (A) (A) (A) (A)
                 (A) (A) (A) (A) (A) (A) (A) (A) (A) (A) (A) (A)
                 (A) (A) (A) (A) (A) (A) (A) (A) (A) (A) (A) (A)
                 (A) (A) (A) (A) (A) (A) (A) (A) (A) (A) (A) (A)
                 (A) (A) (A) (A) (A) (A) (A) (A) (A) (A) (A) (A)
                 (A) (A) (A) (A) (A) (A) (A) (A) (A) (A) (A) (A)
                 (A) (A) (A) (A) (A) (A) (A) (A) (A) (A) (A) (A)
                 (A) (A) (A) (A) (A) (A) (A) (A) (A) (A) (A) (A)
 The electronic state is 1-A.
 Alpha  occ. eigenvalues -- -483.13033-483.12839 -62.67870 -62.67665 -56.46986
 Alpha  occ. eigenvalues --  -56.46770 -56.46637 -56.46622 -56.46437 -56.46425
 Alpha  occ. eigenvalues --  -19.20054 -14.50090 -14.44608 -10.40987 -10.38361
 Alpha  occ. eigenvalues --  -10.32070 -10.31756 -10.31151 -10.30674 -10.29834
 Alpha  occ. eigenvalues --  -10.29386 -10.29385 -10.29285 -10.29229  -8.81963
 Alpha  occ. eigenvalues --   -8.81774  -6.64101  -6.63882  -6.62999  -6.62951
 Alpha  occ. eigenvalues --   -6.62822  -6.62783  -2.74480  -2.74279  -2.74182
 Alpha  occ. eigenvalues --   -2.74144  -2.73975  -2.73942  -2.73252  -2.73252
 Alpha  occ. eigenvalues --   -2.73085  -2.73084  -1.13087  -1.05551  -1.01415
 Alpha  occ. eigenvalues --   -0.98067  -0.94322  -0.89334  -0.86083  -0.85680
 Alpha  occ. eigenvalues --   -0.81973  -0.79927  -0.79579  -0.72360  -0.71130
 Alpha  occ. eigenvalues --   -0.68510  -0.65654  -0.65282  -0.61570  -0.59050
 Alpha  occ. eigenvalues --   -0.57872  -0.56656  -0.55301  -0.54301  -0.54029
 Alpha  occ. eigenvalues --   -0.52730  -0.51376  -0.51249  -0.50761  -0.48837
 Alpha  occ. eigenvalues --   -0.47433  -0.47071  -0.46932  -0.46244  -0.45202
 Alpha  occ. eigenvalues --   -0.43490  -0.43083  -0.40259  -0.39494  -0.37643
 Alpha  occ. eigenvalues --   -0.36528  -0.35083  -0.34293  -0.33010  -0.31836
 Alpha  occ. eigenvalues --   -0.27547
 Alpha virt. eigenvalues --    0.01020   0.04857   0.05509   0.07028   0.09822
 Alpha virt. eigenvalues --    0.10268   0.12372   0.13391   0.14289   0.15183
 Alpha virt. eigenvalues --    0.15685   0.15930   0.16609   0.17734   0.18495
 Alpha virt. eigenvalues --    0.18663   0.19091   0.19829   0.20502   0.21480
 Alpha virt. eigenvalues --    0.21527   0.22525   0.23187   0.23318   0.24203
 Alpha virt. eigenvalues --    0.24899   0.25749   0.26591   0.26933   0.27923
 Alpha virt. eigenvalues --    0.28339   0.28735   0.29155   0.29876   0.30323
 Alpha virt. eigenvalues --    0.30486   0.31211   0.31768   0.32156   0.32244
 Alpha virt. eigenvalues --    0.32791   0.33279   0.33950   0.35002   0.35694
 Alpha virt. eigenvalues --    0.35907   0.36291   0.37093   0.37819   0.38324
 Alpha virt. eigenvalues --    0.38663   0.39429   0.39715   0.40572   0.41907
 Alpha virt. eigenvalues --    0.42736   0.43486   0.44268   0.44627   0.45108
 Alpha virt. eigenvalues --    0.45745   0.46167   0.47291   0.47460   0.47667
 Alpha virt. eigenvalues --    0.48420   0.48740   0.49217   0.49709   0.50562
 Alpha virt. eigenvalues --    0.51249   0.51761   0.52109   0.52303   0.52599
 Alpha virt. eigenvalues --    0.53189   0.53455   0.54113   0.56162   0.56233
 Alpha virt. eigenvalues --    0.56880   0.57077   0.57128   0.57846   0.58559
 Alpha virt. eigenvalues --    0.59510   0.59798   0.59868   0.60634   0.61470
 Alpha virt. eigenvalues --    0.61960   0.62389   0.63876   0.64193   0.65280
 Alpha virt. eigenvalues --    0.66763   0.66805   0.67493   0.70021   0.70139
 Alpha virt. eigenvalues --    0.71370   0.72140   0.72793   0.73659   0.74460
 Alpha virt. eigenvalues --    0.74987   0.75676   0.76688   0.78067   0.78534
 Alpha virt. eigenvalues --    0.79055   0.80669   0.81129   0.82099   0.83532
 Alpha virt. eigenvalues --    0.84399   0.85646   0.85957   0.86346   0.87316
 Alpha virt. eigenvalues --    0.87880   0.88433   0.90485   0.92321   0.92910
 Alpha virt. eigenvalues --    0.94561   0.95238   0.95462   0.97120   0.97516
 Alpha virt. eigenvalues --    0.99515   1.00320   1.00735   1.00956   1.02118
 Alpha virt. eigenvalues --    1.02593   1.04231   1.06595   1.07765   1.08809
 Alpha virt. eigenvalues --    1.09544   1.10009   1.11741   1.13553   1.13973
 Alpha virt. eigenvalues --    1.14705   1.15593   1.15760   1.17064   1.18243
 Alpha virt. eigenvalues --    1.19980   1.20259   1.20876   1.22145   1.23522
 Alpha virt. eigenvalues --    1.25422   1.26537   1.27705   1.29183   1.30378
 Alpha virt. eigenvalues --    1.30535   1.31972   1.32985   1.34166   1.34968
 Alpha virt. eigenvalues --    1.35818   1.36721   1.37646   1.38387   1.39368
 Alpha virt. eigenvalues --    1.40657   1.41690   1.42158   1.43384   1.43659
 Alpha virt. eigenvalues --    1.45887   1.46188   1.47487   1.48588   1.49336
 Alpha virt. eigenvalues --    1.50102   1.51401   1.52060   1.52586   1.53100
 Alpha virt. eigenvalues --    1.54526   1.54787   1.55459   1.57360   1.57641
 Alpha virt. eigenvalues --    1.58260   1.58524   1.59478   1.59756   1.60080
 Alpha virt. eigenvalues --    1.61555   1.61941   1.62364   1.62878   1.63280
 Alpha virt. eigenvalues --    1.63409   1.64252   1.64929   1.65924   1.66949
 Alpha virt. eigenvalues --    1.67423   1.68733   1.68804   1.69824   1.70698
 Alpha virt. eigenvalues --    1.71388   1.72262   1.73377   1.73779   1.74771
 Alpha virt. eigenvalues --    1.75473   1.76171   1.76788   1.76941   1.78221
 Alpha virt. eigenvalues --    1.78503   1.78956   1.79637   1.80160   1.80451
 Alpha virt. eigenvalues --    1.81591   1.82111   1.82518   1.84068   1.84434
 Alpha virt. eigenvalues --    1.85874   1.86609   1.88298   1.89620   1.90148
 Alpha virt. eigenvalues --    1.91023   1.91781   1.93393   1.94027   1.95472
 Alpha virt. eigenvalues --    1.97049   1.97772   1.97921   2.00500   2.01430
 Alpha virt. eigenvalues --    2.02093   2.03340   2.04317   2.05230   2.06127
 Alpha virt. eigenvalues --    2.07836   2.07940   2.09121   2.11013   2.11289
 Alpha virt. eigenvalues --    2.12949   2.14390   2.16113   2.16781   2.17279
 Alpha virt. eigenvalues --    2.17714   2.19462   2.20938   2.21483   2.22535
 Alpha virt. eigenvalues --    2.24502   2.25266   2.27748   2.28430   2.29766
 Alpha virt. eigenvalues --    2.30499   2.31225   2.31746   2.34279   2.36131
 Alpha virt. eigenvalues --    2.37547   2.39352   2.40520   2.41824   2.42079
 Alpha virt. eigenvalues --    2.45222   2.45639   2.47384   2.48240   2.49686
 Alpha virt. eigenvalues --    2.51886   2.54176   2.54859   2.57316   2.57480
 Alpha virt. eigenvalues --    2.58379   2.59877   2.61188   2.61955   2.62625
 Alpha virt. eigenvalues --    2.63680   2.64985   2.66241   2.67744   2.67840
 Alpha virt. eigenvalues --    2.69697   2.71066   2.71844   2.72469   2.73138
 Alpha virt. eigenvalues --    2.73988   2.74304   2.75542   2.75892   2.77467
 Alpha virt. eigenvalues --    2.77972   2.79035   2.79644   2.81077   2.82434
 Alpha virt. eigenvalues --    2.83334   2.84330   2.85473   2.85568   2.86822
 Alpha virt. eigenvalues --    2.87705   2.88430   2.91081   2.91922   2.93098
 Alpha virt. eigenvalues --    2.93850   2.94061   2.94881   2.96326   2.97643
 Alpha virt. eigenvalues --    2.97930   2.99225   3.00242   3.01714   3.03280
 Alpha virt. eigenvalues --    3.04794   3.05823   3.07781   3.09571   3.11764
 Alpha virt. eigenvalues --    3.12425   3.12668   3.14230   3.14937   3.16268
 Alpha virt. eigenvalues --    3.17793   3.19238   3.20050   3.20457   3.21467
 Alpha virt. eigenvalues --    3.21809   3.23269   3.23427   3.24141   3.25790
 Alpha virt. eigenvalues --    3.26098   3.27140   3.28183   3.28791   3.31079
 Alpha virt. eigenvalues --    3.31287   3.32866   3.33600   3.34394   3.34882
 Alpha virt. eigenvalues --    3.36674   3.37824   3.38209   3.39173   3.41350
 Alpha virt. eigenvalues --    3.42217   3.42398   3.42938   3.43367   3.43799
 Alpha virt. eigenvalues --    3.44944   3.46698   3.47545   3.48332   3.49796
 Alpha virt. eigenvalues --    3.50773   3.51773   3.52508   3.53240   3.54627
 Alpha virt. eigenvalues --    3.55940   3.57070   3.59187   3.60328   3.60730
 Alpha virt. eigenvalues --    3.61093   3.62024   3.63306   3.64203   3.65587
 Alpha virt. eigenvalues --    3.65981   3.68887   3.69571   3.71384   3.72219
 Alpha virt. eigenvalues --    3.73978   3.76040   3.77597   3.78523   3.79733
 Alpha virt. eigenvalues --    3.81143   3.82198   3.84120   3.88076   3.88586
 Alpha virt. eigenvalues --    3.90382   3.91537   3.93048   3.95077   3.98958
 Alpha virt. eigenvalues --    4.00359   4.02874   4.02960   4.05156   4.06169
 Alpha virt. eigenvalues --    4.11856   4.13240   4.14791   4.15565   4.16677
 Alpha virt. eigenvalues --    4.17218   4.18167   4.19226   4.20666   4.21110
 Alpha virt. eigenvalues --    4.23888   4.24440   4.25472   4.27483   4.29345
 Alpha virt. eigenvalues --    4.30582   4.30868   4.31667   4.32413   4.33481
 Alpha virt. eigenvalues --    4.35859   4.36916   4.37524   4.38520   4.39320
 Alpha virt. eigenvalues --    4.41735   4.42532   4.45798   4.46834   4.47598
 Alpha virt. eigenvalues --    4.50270   4.51731   4.53449   4.54848   4.58364
 Alpha virt. eigenvalues --    4.60364   4.62170   4.65887   4.67387   4.73227
 Alpha virt. eigenvalues --    4.76535   4.77600   4.80012   4.82385   4.83771
 Alpha virt. eigenvalues --    4.84188   4.88437   4.92008   4.93807   4.94593
 Alpha virt. eigenvalues --    4.97378   4.98595   5.00989   5.05397   5.06544
 Alpha virt. eigenvalues --    5.10715   5.11452   5.15949   5.16940   5.18147
 Alpha virt. eigenvalues --    5.19524   5.20960   5.24487   5.25966   5.27727
 Alpha virt. eigenvalues --    5.33740   5.33876   5.35022   5.40389   5.41078
 Alpha virt. eigenvalues --    5.43011   5.47932   5.51746   5.54297   5.57650
 Alpha virt. eigenvalues --    5.59771   5.60934   5.63173   5.72550   5.75045
 Alpha virt. eigenvalues --    5.77999   5.89779   5.94331   6.05801   6.21991
 Alpha virt. eigenvalues --    6.43601   6.58168   6.73525   6.84505   6.96272
 Alpha virt. eigenvalues --    7.20249   7.27208   7.77865   7.83240  22.23083
 Alpha virt. eigenvalues --   22.51191  22.54319  22.61187  22.72695  22.75124
 Alpha virt. eigenvalues --   22.88273  22.95861  23.00021  23.36502  23.52798
 Alpha virt. eigenvalues --   32.25740  32.55578  44.21128
          Condensed to atoms (all electrons):
               1          2          3          4          5          6
     1  C    6.145348   0.097213  -0.141575   0.319667   0.017678  -0.008582
     2  C    0.097213   4.668683   0.653191  -0.055818  -0.010758   0.001634
     3  O   -0.141575   0.653191   8.094768  -0.005894   0.008450   0.000229
     4  C    0.319667  -0.055818  -0.005894   5.265894  -0.043321  -0.000787
     5  C    0.017678  -0.010758   0.008450  -0.043321   4.870370   0.420032
     6  H   -0.008582   0.001634   0.000229  -0.000787   0.420032   0.501857
     7  H   -0.003550   0.000958   0.000490   0.005840   0.404355  -0.017420
     8  H    0.035125  -0.011661  -0.003464  -0.026456   0.415257  -0.021797
     9  N   -0.071538   0.024152  -0.000336   0.046996   0.227157  -0.032802
    10  H   -0.015822   0.000179  -0.000120   0.001710  -0.014467   0.004944
    11  H    0.012973  -0.001521   0.000003  -0.003332  -0.022580  -0.006632
    12  Br  -0.089064   0.000822  -0.000353   0.345724   0.006051   0.000029
    13  C   -0.090129  -0.036848  -0.024059   0.245397   0.023523   0.005000
    14  C   -0.007668  -0.007004   0.010781  -0.084528   0.000136  -0.000702
    15  C    0.001715   0.005585  -0.000373   0.005534  -0.000126   0.000142
    16  C    0.000864  -0.001272   0.001033  -0.004948  -0.000007  -0.000191
    17  C   -0.002045   0.001605  -0.003006   0.004919   0.000526   0.001657
    18  C   -0.000916   0.006239   0.019845  -0.133278  -0.007098  -0.000972
    19  H   -0.003552  -0.002037  -0.002085   0.001014   0.000022   0.000002
    20  H   -0.000071   0.000121   0.000061  -0.000246  -0.000002   0.000001
    21  H    0.000004  -0.000008  -0.000006   0.000078   0.000001  -0.000001
    22  H   -0.000021   0.000018  -0.000022  -0.000324   0.000027   0.000081
    23  H    0.001051   0.000125   0.000330  -0.010021  -0.004746  -0.001383
    24  Br   0.270802  -0.086968   0.005631  -0.055427  -0.000768   0.000090
    25  N   -0.148491   0.452401  -0.111849   0.000154  -0.000364   0.000001
    26  C    0.007640  -0.041492   0.009916  -0.000747  -0.000166   0.000002
    27  H   -0.005349  -0.046840   0.004156   0.001187  -0.000048  -0.000001
    28  H    0.001898   0.007009   0.002108   0.000057  -0.000009   0.000000
    29  H   -0.004596  -0.005888   0.003960   0.000105  -0.000026  -0.000001
    30  H    0.004297  -0.009464   0.006506  -0.000179   0.000123   0.000004
               7          8          9         10         11         12
     1  C   -0.003550   0.035125  -0.071538  -0.015822   0.012973  -0.089064
     2  C    0.000958  -0.011661   0.024152   0.000179  -0.001521   0.000822
     3  O    0.000490  -0.003464  -0.000336  -0.000120   0.000003  -0.000353
     4  C    0.005840  -0.026456   0.046996   0.001710  -0.003332   0.345724
     5  C    0.404355   0.415257   0.227157  -0.014467  -0.022580   0.006051
     6  H   -0.017420  -0.021797  -0.032802   0.004944  -0.006632   0.000029
     7  H    0.494009  -0.020553  -0.019990  -0.006202  -0.002544  -0.000436
     8  H   -0.020553   0.505833  -0.035995  -0.003048   0.005168   0.000874
     9  N   -0.019990  -0.035995   6.563541   0.352575   0.350480  -0.077668
    10  H   -0.006202  -0.003048   0.352575   0.401355  -0.019595   0.000861
    11  H   -0.002544   0.005168   0.350480  -0.019595   0.403013   0.002233
    12  Br  -0.000436   0.000874  -0.077668   0.000861   0.002233  35.033185
    13  C   -0.001165  -0.000949  -0.061731   0.006230  -0.009328  -0.070313
    14  C    0.000024   0.000337   0.002576  -0.000463   0.001201  -0.008144
    15  C   -0.000007  -0.000013   0.000482   0.000045  -0.000298   0.000540
    16  C    0.000007   0.000014  -0.000207  -0.000022   0.000270   0.000312
    17  C   -0.000045  -0.000139   0.003082   0.000115  -0.001668  -0.000588
    18  C    0.000850  -0.001049   0.037099  -0.000477  -0.003420   0.006746
    19  H    0.000002  -0.000015   0.000291  -0.000024   0.000001   0.003490
    20  H   -0.000000  -0.000000   0.000007   0.000000  -0.000002   0.000039
    21  H    0.000000  -0.000000  -0.000001  -0.000000   0.000001  -0.000007
    22  H   -0.000002  -0.000003   0.000013   0.000002  -0.000073   0.000015
    23  H   -0.000187   0.000480   0.003989  -0.000016   0.002349   0.000545
    24  Br   0.000283   0.000589   0.001384   0.003941  -0.000195  -0.027679
    25  N    0.000012   0.001060   0.000269  -0.000023   0.000001  -0.000364
    26  C   -0.000003   0.000015   0.000066  -0.000002  -0.000002   0.000021
    27  H   -0.000002   0.000101  -0.000069   0.000008   0.000001   0.000063
    28  H   -0.000000   0.000003   0.000000   0.000000   0.000000   0.000001
    29  H   -0.000000   0.000028   0.000004   0.000000  -0.000000  -0.000003
    30  H    0.000002  -0.000109  -0.000013  -0.000000   0.000000   0.000002
              13         14         15         16         17         18
     1  C   -0.090129  -0.007668   0.001715   0.000864  -0.002045  -0.000916
     2  C   -0.036848  -0.007004   0.005585  -0.001272   0.001605   0.006239
     3  O   -0.024059   0.010781  -0.000373   0.001033  -0.003006   0.019845
     4  C    0.245397  -0.084528   0.005534  -0.004948   0.004919  -0.133278
     5  C    0.023523   0.000136  -0.000126  -0.000007   0.000526  -0.007098
     6  H    0.005000  -0.000702   0.000142  -0.000191   0.001657  -0.000972
     7  H   -0.001165   0.000024  -0.000007   0.000007  -0.000045   0.000850
     8  H   -0.000949   0.000337  -0.000013   0.000014  -0.000139  -0.001049
     9  N   -0.061731   0.002576   0.000482  -0.000207   0.003082   0.037099
    10  H    0.006230  -0.000463   0.000045  -0.000022   0.000115  -0.000477
    11  H   -0.009328   0.001201  -0.000298   0.000270  -0.001668  -0.003420
    12  Br  -0.070313  -0.008144   0.000540   0.000312  -0.000588   0.006746
    13  C    5.449556   0.363273   0.060074  -0.129538   0.052648   0.075462
    14  C    0.363273   5.210693   0.370090   0.066325  -0.095131   0.073511
    15  C    0.060074   0.370090   5.065282   0.340857   0.059715  -0.139398
    16  C   -0.129538   0.066325   0.340857   5.056856   0.372322   0.089389
    17  C    0.052648  -0.095131   0.059715   0.372322   5.025562   0.348925
    18  C    0.075462   0.073511  -0.139398   0.089389   0.348925   5.450502
    19  H   -0.078131   0.462556  -0.057171   0.013438  -0.005863   0.017721
    20  H    0.015991  -0.065313   0.463544  -0.062810   0.013183  -0.005303
    21  H   -0.004193   0.011966  -0.060284   0.458139  -0.060661   0.014085
    22  H    0.014848  -0.004222   0.011967  -0.057650   0.453264  -0.057023
    23  H   -0.091559   0.002669  -0.001110   0.006411   0.000443   0.443185
    24  Br   0.011967   0.001491  -0.000276   0.000032  -0.000028  -0.000331
    25  N    0.000925  -0.000988  -0.000710   0.000143  -0.000124   0.000759
    26  C   -0.000259   0.000121   0.000155  -0.000042   0.000030  -0.000093
    27  H   -0.000167   0.000049  -0.000013   0.000002  -0.000002  -0.000007
    28  H    0.000004   0.000004   0.000002  -0.000000   0.000000  -0.000003
    29  H   -0.000167   0.000019   0.000141  -0.000030   0.000017  -0.000048
    30  H    0.000138   0.000027  -0.000030   0.000009  -0.000012   0.000045
              19         20         21         22         23         24
     1  C   -0.003552  -0.000071   0.000004  -0.000021   0.001051   0.270802
     2  C   -0.002037   0.000121  -0.000008   0.000018   0.000125  -0.086968
     3  O   -0.002085   0.000061  -0.000006  -0.000022   0.000330   0.005631
     4  C    0.001014  -0.000246   0.000078  -0.000324  -0.010021  -0.055427
     5  C    0.000022  -0.000002   0.000001   0.000027  -0.004746  -0.000768
     6  H    0.000002   0.000001  -0.000001   0.000081  -0.001383   0.000090
     7  H    0.000002  -0.000000   0.000000  -0.000002  -0.000187   0.000283
     8  H   -0.000015  -0.000000  -0.000000  -0.000003   0.000480   0.000589
     9  N    0.000291   0.000007  -0.000001   0.000013   0.003989   0.001384
    10  H   -0.000024   0.000000  -0.000000   0.000002  -0.000016   0.003941
    11  H    0.000001  -0.000002   0.000001  -0.000073   0.002349  -0.000195
    12  Br   0.003490   0.000039  -0.000007   0.000015   0.000545  -0.027679
    13  C   -0.078131   0.015991  -0.004193   0.014848  -0.091559   0.011967
    14  C    0.462556  -0.065313   0.011966  -0.004222   0.002669   0.001491
    15  C   -0.057171   0.463544  -0.060284   0.011967  -0.001110  -0.000276
    16  C    0.013438  -0.062810   0.458139  -0.057650   0.006411   0.000032
    17  C   -0.005863   0.013183  -0.060661   0.453264   0.000443  -0.000028
    18  C    0.017721  -0.005303   0.014085  -0.057023   0.443185  -0.000331
    19  H    0.499879  -0.007322  -0.000029   0.000003   0.000005   0.000193
    20  H   -0.007322   0.510619  -0.006958  -0.000033   0.000038  -0.000004
    21  H   -0.000029  -0.006958   0.509224  -0.006751  -0.000127   0.000000
    22  H    0.000003  -0.000033  -0.006751   0.507777  -0.006447  -0.000000
    23  H    0.000005   0.000038  -0.000127  -0.006447   0.515514  -0.000016
    24  Br   0.000193  -0.000004   0.000000  -0.000000  -0.000016  35.018492
    25  N    0.001721  -0.000016   0.000000  -0.000000   0.000004  -0.003227
    26  C   -0.000113   0.000004  -0.000000   0.000000  -0.000000   0.003387
    27  H    0.000069  -0.000000   0.000000  -0.000000   0.000000   0.008574
    28  H   -0.000002   0.000000  -0.000000   0.000000  -0.000000  -0.000292
    29  H   -0.000148   0.000007  -0.000000   0.000000  -0.000000  -0.000160
    30  H    0.000032  -0.000001   0.000000  -0.000000   0.000001  -0.000170
              25         26         27         28         29         30
     1  C   -0.148491   0.007640  -0.005349   0.001898  -0.004596   0.004297
     2  C    0.452401  -0.041492  -0.046840   0.007009  -0.005888  -0.009464
     3  O   -0.111849   0.009916   0.004156   0.002108   0.003960   0.006506
     4  C    0.000154  -0.000747   0.001187   0.000057   0.000105  -0.000179
     5  C   -0.000364  -0.000166  -0.000048  -0.000009  -0.000026   0.000123
     6  H    0.000001   0.000002  -0.000001   0.000000  -0.000001   0.000004
     7  H    0.000012  -0.000003  -0.000002  -0.000000  -0.000000   0.000002
     8  H    0.001060   0.000015   0.000101   0.000003   0.000028  -0.000109
     9  N    0.000269   0.000066  -0.000069   0.000000   0.000004  -0.000013
    10  H   -0.000023  -0.000002   0.000008   0.000000   0.000000  -0.000000
    11  H    0.000001  -0.000002   0.000001   0.000000  -0.000000   0.000000
    12  Br  -0.000364   0.000021   0.000063   0.000001  -0.000003   0.000002
    13  C    0.000925  -0.000259  -0.000167   0.000004  -0.000167   0.000138
    14  C   -0.000988   0.000121   0.000049   0.000004   0.000019   0.000027
    15  C   -0.000710   0.000155  -0.000013   0.000002   0.000141  -0.000030
    16  C    0.000143  -0.000042   0.000002  -0.000000  -0.000030   0.000009
    17  C   -0.000124   0.000030  -0.000002   0.000000   0.000017  -0.000012
    18  C    0.000759  -0.000093  -0.000007  -0.000003  -0.000048   0.000045
    19  H    0.001721  -0.000113   0.000069  -0.000002  -0.000148   0.000032
    20  H   -0.000016   0.000004  -0.000000   0.000000   0.000007  -0.000001
    21  H    0.000000  -0.000000   0.000000  -0.000000  -0.000000   0.000000
    22  H   -0.000000   0.000000  -0.000000   0.000000   0.000000  -0.000000
    23  H    0.000004  -0.000000   0.000000  -0.000000  -0.000000   0.000001
    24  Br  -0.003227   0.003387   0.008574  -0.000292  -0.000160  -0.000170
    25  N    6.617626   0.252565   0.384235  -0.025989  -0.048419  -0.047702
    26  C    0.252565   4.798617  -0.025400   0.397054   0.430726   0.416527
    27  H    0.384235  -0.025400   0.430935  -0.008303   0.000626   0.004985
    28  H   -0.025989   0.397054  -0.008303   0.529926  -0.022397  -0.021080
    29  H   -0.048419   0.430726   0.000626  -0.022397   0.566012  -0.044948
    30  H   -0.047702   0.416527   0.004985  -0.021080  -0.044948   0.563532
 Mulliken charges:
               1
     1  C   -0.323305
     2  C    0.397646
     3  O   -0.528314
     4  C    0.181030
     5  C   -0.289222
     6  H    0.155566
     7  H    0.165274
     8  H    0.160365
     9  N   -0.313813
    10  H    0.288313
    11  H    0.293495
    12  Br  -0.126935
    13  C    0.273499
    14  C   -0.303686
    15  C   -0.126063
    16  C   -0.149705
    17  C   -0.168703
    18  C   -0.234948
    19  H    0.156053
    20  H    0.144466
    21  H    0.145528
    22  H    0.144553
    23  H    0.138475
    24  Br  -0.151315
    25  N   -0.323609
    26  C   -0.248527
    27  H    0.251212
    28  H    0.140009
    29  H    0.125187
    30  H    0.127475
 Sum of Mulliken charges =  -0.00000
 Mulliken charges with hydrogens summed into heavy atoms:
               1
     1  C   -0.323305
     2  C    0.397646
     3  O   -0.528314
     4  C    0.181030
     5  C    0.191984
     9  N    0.267995
    12  Br  -0.126935
    13  C    0.273499
    14  C   -0.147633
    15  C    0.018404
    16  C   -0.004178
    17  C   -0.024150
    18  C   -0.096473
    24  Br  -0.151315
    25  N   -0.072397
    26  C    0.144144
 APT charges:
               1
     1  C   -0.447862
     2  C   -0.123874
     3  O   -0.290755
     4  C   -0.128554
     5  C   -1.091304
     6  H    0.348223
     7  H    0.733575
     8  H    0.141455
     9  N   -0.836485
    10  H    0.539768
    11  H    0.683877
    12  Br   0.096219
    13  C   -0.192445
    14  C   -0.561343
    15  C   -0.540768
    16  C   -0.643374
    17  C   -0.669073
    18  C   -0.645133
    19  H    0.219549
    20  H    0.713671
    21  H    1.038323
    22  H    0.856953
    23  H    0.385349
    24  Br   0.042401
    25  N   -0.236134
    26  C   -1.436186
    27  H    0.532161
    28  H    0.780377
    29  H    0.353175
    30  H    0.378213
 Sum of APT charges =  -0.00000
 APT charges with hydrogens summed into heavy atoms:
               1
     1  C   -0.447862
     2  C   -0.123874
     3  O   -0.290755
     4  C   -0.128554
     5  C    0.131948
     9  N    0.387160
    12  Br   0.096219
    13  C   -0.192445
    14  C   -0.341794
    15  C    0.172903
    16  C    0.394950
    17  C    0.187880
    18  C   -0.259784
    24  Br   0.042401
    25  N    0.296027
    26  C    0.075579
 Electronic spatial extent (au):  <R**2>=           5263.2961
 Charge=             -0.0000 electrons
 Dipole moment (field-independent basis, Debye):
    X=             -0.2031    Y=             -2.3315    Z=              4.2780  Tot=              4.8763
 Quadrupole moment (field-independent basis, Debye-Ang):
   XX=           -109.3690   YY=           -123.2982   ZZ=           -102.8750
   XY=              6.0145   XZ=             -3.2637   YZ=            -14.4189
 Traceless Quadrupole moment (field-independent basis, Debye-Ang):
   XX=              2.4784   YY=            -11.4508   ZZ=              8.9724
   XY=              6.0145   XZ=             -3.2637   YZ=            -14.4189
 Octapole moment (field-independent basis, Debye-Ang**2):
  XXX=             47.5282  YYY=            -93.6384  ZZZ=             21.0550  XYY=             54.8218
  XXY=             10.5813  XXZ=             -4.9907  XZZ=             12.3689  YZZ=            -37.1607
  YYZ=            -11.1130  XYZ=              4.5322
 Hexadecapole moment (field-independent basis, Debye-Ang**3):
 XXXX=          -2971.5952 YYYY=          -2096.7598 ZZZZ=           -847.7692 XXXY=            -64.3054
 XXXZ=            -74.0162 YYYX=             96.0976 YYYZ=            -11.1395 ZZZX=            -13.5462
 ZZZY=            -10.8535 XXYY=           -830.8131 XXZZ=           -660.5227 YYZZ=           -488.5352
 XXYZ=            -40.5841 YYXZ=             -6.2101 ZZXY=            -10.5297
 N-N= 2.030877054954D+03 E-N=-1.779391322535D+04  KE= 5.750566138508D+03
  Exact polarizability:   0.000   0.000   0.000   0.000   0.000   0.000
 Approx polarizability: 235.044 -11.865 213.800 -15.697 -10.035 209.595
   1 Symmetry operations used in ECPInt.
 ECPInt:  NShTT=   29403 NPrTT=   98385 LenC2=   27073 LenP2D=   64029.
 LDataN:  DoStor=T MaxTD1= 8 Len=  415
 D2PCM: PCM CHGder 2nd derivatives, FixD1E=F FixD2E=F DoIter=F DoCFld=F I1PDM=0
 Calling FoFJK, ICntrl=    100147 FMM=F ISym2X=0 I1Cent= 0 IOpClX= 0 NMat=1 NMatS=1 NMatT=0.
 ***** Axes restored to original set *****
 -------------------------------------------------------------------
 Center     Atomic                   Forces (Hartrees/Bohr)
 Number     Number              X              Y              Z
 -------------------------------------------------------------------
      1        6          -0.000022434   -0.000024101    0.000006106
      2        6           0.000004248    0.000022330    0.000005703
      3        8           0.000016908   -0.000001845    0.000001148
      4        6           0.000010749    0.000010250   -0.000008872
      5        6          -0.000005035   -0.000002637    0.000004667
      6        1           0.000003000    0.000002417   -0.000001768
      7        1          -0.000000694    0.000000928    0.000001591
      8        1          -0.000003843    0.000003549   -0.000000782
      9        7           0.000000161    0.000004643   -0.000000362
     10        1          -0.000002176   -0.000009001   -0.000000809
     11        1          -0.000001944    0.000003283    0.000002092
     12       35           0.000001550   -0.000010740   -0.000002365
     13        6           0.000009904   -0.000002380   -0.000005176
     14        6          -0.000007497   -0.000004175    0.000000702
     15        6           0.000006946    0.000001233   -0.000005754
     16        6          -0.000000903   -0.000000704    0.000005279
     17        6           0.000002163    0.000003668   -0.000011163
     18        6          -0.000002807    0.000004954    0.000006768
     19        1           0.000002849    0.000001199   -0.000000875
     20        1           0.000000397    0.000001108   -0.000000171
     21        1           0.000001375    0.000001832   -0.000000772
     22        1          -0.000005048    0.000001490    0.000003618
     23        1          -0.000002117   -0.000001834   -0.000003946
     24       35          -0.000000909   -0.000003222   -0.000002922
     25        7          -0.000013557    0.000004371   -0.000005537
     26        6           0.000007197    0.000002042    0.000003623
     27        1           0.000001799   -0.000001181    0.000007680
     28        1          -0.000001743   -0.000002860    0.000001776
     29        1           0.000001861   -0.000002213    0.000001961
     30        1          -0.000000401   -0.000002406   -0.000001444
 -------------------------------------------------------------------
 Cartesian Forces:  Max     0.000024101 RMS     0.000006373
 FormGI is forming the generalized inverse of G from B-inverse, IUseBI=4.

 GradGradGradGradGradGradGradGradGradGradGradGradGradGradGradGradGradGrad
 Berny optimization.
 Internal  Forces:  Max     0.000025901 RMS     0.000004011
 Search for a saddle point.
 Step number   1 out of a maximum of   70
 All quantities printed in internal units (Hartrees-Bohrs-Radians)
 Swapping is turned off.
 Second derivative matrix not updated -- analytic derivatives used.
 ITU=  0
     Eigenvalues ---   -0.03118   0.00034   0.00092   0.00151   0.00212
     Eigenvalues ---    0.00339   0.00462   0.00852   0.01246   0.01312
     Eigenvalues ---    0.01502   0.01698   0.01755   0.01843   0.02046
     Eigenvalues ---    0.02218   0.02290   0.02394   0.02579   0.02797
     Eigenvalues ---    0.02936   0.03263   0.04109   0.04371   0.04610
     Eigenvalues ---    0.04841   0.05870   0.05950   0.06096   0.06139
     Eigenvalues ---    0.08707   0.09400   0.10113   0.10963   0.11689
     Eigenvalues ---    0.11760   0.11979   0.12345   0.12526   0.13043
     Eigenvalues ---    0.13336   0.14536   0.14945   0.16812   0.16887
     Eigenvalues ---    0.17548   0.17690   0.17993   0.18285   0.18919
     Eigenvalues ---    0.19109   0.19422   0.19596   0.22733   0.23617
     Eigenvalues ---    0.26067   0.27676   0.29154   0.33224   0.33959
     Eigenvalues ---    0.34200   0.34584   0.35000   0.35012   0.35248
     Eigenvalues ---    0.36222   0.36321   0.36523   0.36563   0.36594
     Eigenvalues ---    0.39073   0.39403   0.40546   0.42567   0.43433
     Eigenvalues ---    0.44289   0.44969   0.47128   0.47270   0.48277
     Eigenvalues ---    0.48718   0.51503   0.51961   0.75401
 Eigenvectors required to have negative eigenvalues:
                          R6        A44       D9        R7        D6
   1                    0.84326   0.18431   0.18122  -0.17024   0.15275
                          D25       D41       D24       R2        D39
   1                    0.11983   0.11393   0.11198  -0.10408   0.10257
 RFO step:  Lambda0=1.896717896D-09 Lambda=-5.33263259D-08.
 Linear search not attempted -- option 19 set.
 Iteration  1 RMS(Cart)=  0.00065639 RMS(Int)=  0.00000047
 Iteration  2 RMS(Cart)=  0.00000064 RMS(Int)=  0.00000018
 Variable       Old X    -DE/DX   Delta X   Delta X   Delta X     New X
                                 (Linear)    (Quad)   (Total)
    R1        2.76522   0.00003   0.00000   0.00007   0.00007   2.76529
    R2        2.62320  -0.00001   0.00000   0.00000   0.00000   2.62321
    R3        3.62381   0.00000   0.00000   0.00002   0.00002   3.62383
    R4        2.33481  -0.00001   0.00000   0.00000   0.00000   2.33481
    R5        2.56275  -0.00001   0.00000  -0.00006  -0.00006   2.56269
    R6        3.56901   0.00000   0.00000  -0.00037  -0.00037   3.56865
    R7        3.76885   0.00001   0.00000   0.00011   0.00011   3.76896
    R8        2.84397  -0.00000   0.00000   0.00000   0.00000   2.84397
    R9        2.05324  -0.00000   0.00000  -0.00001  -0.00001   2.05323
   R10        2.05794   0.00000   0.00000  -0.00000  -0.00000   2.05794
   R11        2.05831   0.00000   0.00000  -0.00000  -0.00000   2.05831
   R12        2.76077   0.00001   0.00000   0.00002   0.00002   2.76079
   R13        1.91732   0.00001   0.00000   0.00001   0.00001   1.91734
   R14        1.91726   0.00000   0.00000   0.00000   0.00000   1.91726
   R15        3.83847  -0.00000   0.00000  -0.00057  -0.00057   3.83790
   R16        2.63785  -0.00000   0.00000  -0.00000  -0.00000   2.63785
   R17        2.62258   0.00000   0.00000   0.00002   0.00002   2.62260
   R18        2.61057  -0.00000   0.00000  -0.00000  -0.00000   2.61057
   R19        2.04521   0.00000   0.00000   0.00001   0.00001   2.04521
   R20        2.62520   0.00000   0.00000   0.00001   0.00001   2.62521
   R21        2.04575  -0.00000   0.00000  -0.00000  -0.00000   2.04575
   R22        2.61483  -0.00000   0.00000  -0.00001  -0.00001   2.61482
   R23        2.04541  -0.00000   0.00000  -0.00000  -0.00000   2.04541
   R24        2.62466   0.00000   0.00000  -0.00000  -0.00000   2.62466
   R25        2.04549   0.00001   0.00000   0.00002   0.00002   2.04551
   R26        2.03935  -0.00000   0.00000  -0.00000  -0.00000   2.03934
   R27        2.72640  -0.00000   0.00000  -0.00001  -0.00001   2.72639
   R28        1.89527  -0.00000   0.00000  -0.00002  -0.00002   1.89525
   R29        2.05617  -0.00000   0.00000  -0.00002  -0.00002   2.05615
   R30        2.06518  -0.00000   0.00000  -0.00003  -0.00003   2.06515
   R31        2.06150  -0.00000   0.00000   0.00003   0.00003   2.06152
    A1        2.14890   0.00001   0.00000  -0.00002  -0.00002   2.14888
    A2        2.04587  -0.00000   0.00000  -0.00002  -0.00002   2.04585
    A3        2.07100  -0.00001   0.00000   0.00002   0.00002   2.07103
    A4        2.14118   0.00000   0.00000  -0.00001  -0.00001   2.14117
    A5        2.05119   0.00001   0.00000   0.00006   0.00006   2.05125
    A6        2.09081  -0.00001   0.00000  -0.00005  -0.00005   2.09076
    A7        1.90623  -0.00000   0.00000   0.00010   0.00010   1.90634
    A8        2.03687   0.00000   0.00000  -0.00001  -0.00001   2.03686
    A9        2.08555   0.00000   0.00000  -0.00011  -0.00011   2.08544
   A10        1.65115   0.00000   0.00000   0.00004   0.00004   1.65120
   A11        1.86656  -0.00000   0.00000  -0.00001  -0.00001   1.86656
   A12        1.86187  -0.00000   0.00000   0.00002   0.00002   1.86188
   A13        1.91711  -0.00000   0.00000   0.00004   0.00004   1.91715
   A14        1.89913  -0.00000   0.00000  -0.00006  -0.00006   1.89908
   A15        1.91778   0.00000   0.00000  -0.00001  -0.00001   1.91777
   A16        1.90969  -0.00000   0.00000   0.00003   0.00003   1.90972
   A17        1.93453   0.00000   0.00000  -0.00000  -0.00000   1.93453
   A18        1.88497   0.00000   0.00000   0.00000   0.00000   1.88497
   A19        1.96015  -0.00000   0.00000  -0.00001  -0.00001   1.96013
   A20        1.76529   0.00000   0.00000   0.00014   0.00014   1.76543
   A21        1.96414   0.00000   0.00000  -0.00007  -0.00007   1.96407
   A22        1.92462   0.00000   0.00000   0.00006   0.00006   1.92468
   A23        1.97187   0.00000   0.00000  -0.00006  -0.00006   1.97181
   A24        1.86384  -0.00000   0.00000  -0.00003  -0.00003   1.86380
   A25        1.76961  -0.00000   0.00000   0.00038   0.00038   1.76999
   A26        2.03496   0.00000   0.00000  -0.00002  -0.00002   2.03494
   A27        2.17809   0.00000   0.00000   0.00003   0.00003   2.17812
   A28        2.06825  -0.00000   0.00000  -0.00001  -0.00001   2.06824
   A29        2.11034   0.00000   0.00000   0.00001   0.00001   2.11035
   A30        2.07910  -0.00000   0.00000  -0.00001  -0.00001   2.07909
   A31        2.09372  -0.00000   0.00000   0.00000   0.00000   2.09372
   A32        2.09786  -0.00000   0.00000  -0.00001  -0.00001   2.09785
   A33        2.08696   0.00000   0.00000   0.00001   0.00001   2.08697
   A34        2.09837  -0.00000   0.00000  -0.00001  -0.00001   2.09836
   A35        2.08194   0.00000   0.00000   0.00000   0.00000   2.08194
   A36        2.10097  -0.00000   0.00000   0.00000   0.00000   2.10098
   A37        2.10026  -0.00000   0.00000  -0.00000  -0.00000   2.10026
   A38        2.10310   0.00000   0.00000   0.00000   0.00000   2.10310
   A39        2.09878   0.00000   0.00000   0.00000   0.00000   2.09878
   A40        2.08131  -0.00000   0.00000  -0.00001  -0.00001   2.08131
   A41        2.10462  -0.00000   0.00000  -0.00000  -0.00000   2.10462
   A42        2.12644  -0.00000   0.00000   0.00001   0.00001   2.12645
   A43        2.05205   0.00000   0.00000  -0.00001  -0.00001   2.05204
   A44        2.07605   0.00000   0.00000  -0.00009  -0.00009   2.07597
   A45        2.11980  -0.00000   0.00000   0.00005   0.00005   2.11984
   A46        2.08755   0.00000   0.00000   0.00010   0.00010   2.08764
   A47        2.07219   0.00000   0.00000   0.00010   0.00010   2.07228
   A48        1.89444   0.00000   0.00000  -0.00001  -0.00001   1.89443
   A49        1.95291  -0.00000   0.00000  -0.00011  -0.00011   1.95280
   A50        1.93433  -0.00000   0.00000   0.00013   0.00013   1.93445
   A51        1.89777   0.00000   0.00000  -0.00001  -0.00001   1.89776
   A52        1.89776   0.00000   0.00000   0.00002   0.00002   1.89778
   A53        1.88566   0.00000   0.00000  -0.00001  -0.00001   1.88565
    D1        0.14928   0.00000   0.00000   0.00006   0.00006   0.14934
    D2       -2.98931   0.00000   0.00000   0.00017   0.00017  -2.98914
    D3       -2.78990   0.00001   0.00000   0.00016   0.00016  -2.78973
    D4        0.35469   0.00000   0.00000   0.00028   0.00028   0.35497
[...]
 33,-0.00009330,-0.00003939,-0.00004181,0.00004280,0.00001982,-0.000008
 09,-0.00004722,0.00008407,0.00000917,-0.00000611,-0.00002012,0.0001890
 9,0.00019925,-0.00005543,-0.00002013,-0.00004776,0.00002276,-0.0000197
 7,0.00001419,0.00001786,0.00000142,0.00000217,0.00002047,-0.00002604,-
 0.00000676,-0.00001288,0.00000896,-0.00003793,-0.05789387,0.07819730,0
 .01125638,-0.00254006,-0.00988209,0.00390547,-0.00374754,-0.00343729,-
 0.00063342,-0.00146133,0.00293153,0.00432117,-0.00500458,-0.00501013,-
 0.00021350,-0.00060143,0.00024749,-0.00017170,-0.00007389,0.00008376,0
 .00005506,0.00020235,0.00001626,0.00050617,-0.00017509,-0.00071531,-0.
 00016023,-0.00058016,0.00167590,-0.00014469,0.00028606,-0.00023453,0.0
 0003123,-0.00021067,0.00073253,-0.00169161,0.00312714,0.00116305,-0.00
 123304,0.00054526,0.00344196,0.00052639,-0.00006414,0.00022172,-0.0000
 0236,-0.00032033,-0.00005982,0.00002434,-0.00002461,0.00006015,-0.0001
 4102,-0.00011543,0.00011432,-0.00034655,0.00012134,-0.00023943,0.00015
 441,0.00015632,0.00007975,0.00002677,-0.00002053,0.00000413,0.00002261
 ,0.00005098,0.00001473,-0.00002920,0.00002891,-0.00001065,0.00011470,0
 .00006178,0.00003768,-0.01626144,0.00838176,0.00827445,-0.01071603,-0.
 02799284,0.00386998,-0.21985465,-0.07651454,0.06635278,-0.08828509,0.0
 0484305,0.05111109,0.01089146,0.01199153,-0.00716488,-0.00023468,-0.00
 151648,-0.00037968,0.00010237,0.00008311,-0.00004506,0.00009346,0.0001
 1535,0.00030631,-0.00033002,0.00025635,-0.00044067,-0.00197500,-0.0038
 9861,0.00611971,-0.00027751,0.00024144,0.00008371,0.00053405,-0.000158
 40,0.00102945,-0.00016062,-0.00190327,0.00017723,0.00080076,0.00031799
 ,0.00057966,-0.00071924,-0.00040548,0.00006135,0.00017922,-0.00009116,
 -0.00007881,-0.00028093,0.00018330,0.00002009,-0.00000840,-0.00000670,
 0.00003288,-0.00035320,-0.00049484,-0.00049996,0.00013549,-0.00004078,
 0.00019761,-0.00007837,0.00009270,-0.00007449,-0.00008783,0.00002068,-
 0.00001845,-0.00012551,0.00004799,0.00003941,0.00017234,-0.00002086,0.
 00005067,0.00238205,0.00086574,0.00073602,0.66256603,-0.04475459,-0.04
 050137,0.01327088,-0.08402661,-0.19039654,0.02293610,0.01867062,0.0255
 4957,-0.00745084,0.01110650,0.00512601,-0.00793073,-0.00018018,-0.0014
 6048,-0.00047606,-0.00005106,0.00012956,0.00006503,0.00007644,0.000330
 25,0.00035358,-0.00006084,0.00013031,-0.00048347,-0.00237543,-0.004123
 11,0.00637284,-0.00021671,0.00039530,-0.00016122,0.00060984,-0.0001977
 2,0.00120329,-0.00160093,-0.00329321,-0.00019146,0.00132101,-0.0005838
 7,0.00057774,-0.00060218,0.00006630,0.00005934,-0.00002267,0.00008559,
 -0.00006657,-0.00023221,0.00007954,-0.00001405,-0.00014107,0.00006458,
 0.00006476,-0.00036499,0.00013600,-0.00022675,0.00009174,-0.00014008,0
 .00023018,-0.00008725,0.00007602,-0.00006396,-0.00007309,0.00001250,-0
 .00001449,-0.00011892,0.00005239,0.00002429,0.00015668,-0.00008181,0.0
 0002158,-0.00169454,-0.00901079,0.00178493,-0.03642154,0.71615852,0.00
 354735,0.00558246,0.01067231,0.07417511,0.02666214,-0.08750074,0.05012
 186,-0.00261661,-0.00264296,-0.00210901,-0.00335423,0.00300838,-0.0001
 9818,-0.00022146,0.00005592,-0.00004653,0.00002214,0.00002473,0.000027
 34,0.00001978,-0.00009009,0.00007671,0.00000958,0.00013552,0.00000774,
 0.00035420,-0.00029262,0.00001526,-0.00004774,0.00003154,-0.00003799,0
 .00004186,-0.00008488,0.00035559,0.00143810,-0.00005817,-0.00040459,-0
 .00022397,0.00000976,0.00058074,0.00012045,0.00016429,-0.00019739,0.00
 022812,0.00008123,0.00011266,-0.00009293,-0.00012079,0.00003137,-0.000
 03777,0.00003249,0.00001253,0.00032606,0.00020741,0.00010837,0.0000701
 3,-0.00008560,0.00002148,-0.00003607,0.00002222,0.00003192,-0.00000829
 ,0.00000068,0.00003276,-0.00001346,-0.00001592,-0.00003473,-0.00001913
 ,-0.00002718,0.00037277,0.00035596,0.00008371,-0.30913434,0.08302150,0
 .22305029,-0.00371808,0.00017005,0.00305278,-0.00486231,-0.03463786,-0
 .00135746,0.00144186,-0.00267610,-0.00362035,0.00019032,-0.00120809,0.
 00046278,-0.00000517,-0.00003779,-0.00000258,-0.00000226,0.00000653,0.
 00000273,0.00000275,0.00001993,0.00001132,-0.00000293,0.00000817,0.000
 00006,-0.00025516,-0.00016843,0.00017213,-0.00003548,0.00000837,0.0000
 0806,0.00004485,-0.00001970,0.00009351,0.00006859,0.00018511,-0.000044
 85,0.00002557,-0.00003077,0.00005137,-0.00001976,0.00001058,-0.0000111
 7,0.00002236,-0.00000663,0.00000522,-0.00001296,0.00000164,0.00001822,
 -0.00001749,0.00001699,-0.00001273,0.00001754,-0.00000516,-0.00001251,
 0.00000740,0.00000562,0.00002021,-0.00000189,-0.00000079,-0.00000256,-
 0.00000152,0.00000064,0.00000084,-0.00000085,0.00000121,0.00000092,0.0
 0000767,-0.00000151,-0.00000143,0.00043363,0.00136170,-0.00053422,-0.0
 9434962,-0.00715141,0.02086996,0.60367582,0.00344713,0.00563896,-0.000
 74364,-0.02245302,-0.02774178,0.00902274,0.01036943,-0.00044665,-0.004
 78161,-0.00278833,-0.00282794,0.00216637,-0.00003516,0.00035815,0.0001
 1282,-0.00001133,-0.00001735,0.00000241,-0.00000392,-0.00003404,-0.000
 12330,0.00007944,-0.00007555,0.00020262,0.00064712,0.00121919,-0.00183
 968,0.00005166,-0.00011837,0.00002800,-0.00017192,0.00005709,-0.000327
 72,0.00023663,0.00074937,0.00001690,-0.00024759,0.00009860,-0.00018939
 ,0.00026367,0.00009809,0.00002653,-0.00007806,0.00004679,0.00002486,0.
 00010875,-0.00005780,-0.00004296,0.00004382,-0.00002662,0.00000213,0.0
 0007650,0.00010622,0.00014712,-0.00005141,-0.00000390,-0.00010113,0.00
 003018,-0.00002520,0.00003023,0.00003196,-0.00000729,0.00000417,0.0000
 4465,-0.00001472,-0.00001173,-0.00005345,0.00001419,-0.00001683,0.0000
 1298,0.00065826,-0.00021636,-0.00042873,-0.25042221,-0.01472652,-0.003
 51385,0.50811751,0.00325537,-0.00015221,0.00266067,-0.00284785,0.01244
 377,0.00196297,-0.00151294,-0.00009203,-0.00389213,0.00001607,0.000402
 31,0.00063319,-0.00004518,-0.00005943,-0.00005781,-0.00000151,0.000011
 22,0.00000748,0.00001278,0.00003384,0.00000030,0.00001246,0.00001001,0
 .00004896,-0.00035162,-0.00035715,0.00041831,0.00000015,0.00001562,-0.
 00001217,0.00003362,-0.00002708,0.00013828,0.00030931,0.00074119,0.000
 05970,-0.00010597,0.00001755,0.00006355,0.00001840,0.00001094,0.000001
 67,-0.00002304,0.00001125,0.00001046,0.00000803,0.00000350,-0.00001255
 ,0.00001093,-0.00001235,-0.00000510,-0.00001255,-0.00000877,0.00001525
 ,0.00000596,-0.00000588,-0.00001097,0.00000241,-0.00000330,0.00000104,
 0.00000223,-0.00000133,-0.00000087,0.00000478,0.00000087,-0.00000060,0
 .00000613,-0.00000090,-0.00000643,-0.00008127,0.00018736,-0.00000492,0
 .02325397,-0.00806010,-0.06713934,-0.02014257,-0.00147356,0.57338611,0
 .00066870,0.00144160,-0.00065933,-0.01884693,0.01801709,0.00829116,-0.
 00233257,-0.00419426,0.00425122,-0.00134935,-0.00104370,0.00084781,0.0
 0004138,0.00019878,0.00007959,0.00002018,-0.00001937,-0.00001754,-0.00
 001333,-0.00006315,-0.00003985,-0.00002456,-0.00002060,0.00004574,0.00
 038304,0.00063181,-0.00097110,0.00001789,-0.00003780,0.00001852,-0.000
 07039,0.00003656,-0.00018848,0.00005161,0.00022430,0.00000897,-0.00013
 583,0.00008704,-0.00005042,0.00004363,-0.00002729,0.00000936,0.0000170
 7,-0.00002004,0.00000751,0.00001113,0.00000665,0.00000529,0.00002146,-
 0.00001920,-0.00001263,0.00002568,-0.00004148,-0.00001783,-0.00000924,
 0.00000949,-0.00003144,0.00000709,-0.00000640,0.00000424,0.00000589,-0
 .00000076,0.00000066,0.00000970,-0.00000485,-0.00000145,-0.00001300,0.
 00001487,-0.00000166,0.00080725,0.00103505,-0.00012182,-0.26674774,0.1
 4573427,0.15733062,0.00631198,-0.00551192,-0.00672790,0.27949213,-0.00
 321641,-0.00268056,0.00063484,-0.00322104,0.01950827,0.00578270,-0.008
 33782,-0.00079144,0.00278926,0.00122563,0.00049819,-0.00048418,0.00001
 405,-0.00003429,0.00001228,0.00001557,-0.00000005,-0.00001805,-0.00000
 170,-0.00000128,0.00000822,-0.00003188,0.00003808,-0.00001060,-0.00018
 304,-0.00021716,0.00030315,-0.00011577,-0.00006472,0.00011433,0.000034
 47,-0.00004902,0.00009464,0.00018274,-0.00024734,0.00001261,0.00011193
 ,0.00022136,-0.00000796,-0.00002701,-0.00005325,-0.00001727,0.00003073
 ,-0.00003750,-0.00001265,-0.00000422,0.00001233,0.00001107,0.00001046,
 -0.00001220,-0.00000738,0.00001645,-0.00008309,-0.00000226,0.00001078,
 0.00001371,0.00001155,0.00000087,0.00000355,-0.00000078,-0.00000254,0.
 00000182,0.00000044,0.00000074,-0.00000124,0.00000231,0.00000686,0.000
 00897,0.00000751,0.00034326,-0.00277742,0.00015984,0.14581228,-0.17356
 998,-0.09676884,0.02027374,-0.01179357,-0.01298987,-0.15263655,0.17634
 382,0.00092179,0.00054311,-0.00050832,0.00076230,-0.00643043,-0.009966
 11,0.00368707,0.00065522,0.00582007,-0.00020489,-0.00003809,-0.0002590
 5,0.00001149,0.00002144,0.00001568,-0.00000019,-0.00000260,-0.00000099
 ,-0.00001310,-0.00002596,-0.00000200,-0.00000290,-0.00000467,-0.000037
 97,0.00013924,0.00016649,-0.00015401,0.00003702,0.00001710,-0.00005062
 ,-0.00001926,0.00001524,-0.00005566,-0.00025364,-0.00023058,-0.0000341
 1,0.00000551,-0.00005701,0.00002675,0.00003597,0.00002846,0.00002324,-
 0.00003869,0.00004383,0.00001914,-0.00000045,0.00000411,-0.00003235,0.
 00000934,-0.00002287,0.00001613,-0.00005619,0.00005444,-0.00001075,0.0
 0000316,-0.00001789,-0.00000814,-0.00000366,-0.00000021,-0.00000137,-0
 .00000063,-0.00000200,-0.00000185,-0.00000264,0.00000328,0.00000003,0.
 00000273,-0.00000545,-0.00000315,-0.00039145,-0.00044652,0.00043178,0.
 16086914,-0.09817084,-0.09285034,-0.00401022,0.00261294,-0.00327957,-0
 .16058306,0.10012720,0.10119222,-0.00041470,-0.00043635,0.00006080,0.0
 0081470,0.00147123,-0.00043888,-0.00012357,-0.00146600,0.00010905,0.00
 032395,0.00029154,-0.00027287,0.00000823,-0.00003877,-0.00000967,0.000
 00224,0.00000201,-0.00000075,0.00000106,0.00000531,0.00001634,-0.00001
 097,0.00000711,-0.00002029,-0.00007738,-0.00015290,0.00023847,-0.00000
 767,0.00001393,-0.00000274,0.00001985,-0.00000673,0.00003916,-0.000021
 04,-0.00005646,0.00000937,0.00003994,-0.00001312,0.00002013,-0.0000361
 8,-0.00001335,-0.00000493,0.00001130,-0.00000701,-0.00000160,-0.000015
 00,0.00000668,0.00000609,-0.00000584,0.00000522,-0.00000220,-0.0000080
 9,-0.00001606,-0.00002086,0.00000416,0.00000116,0.00001419,-0.00000330
 ,0.00000369,-0.00000335,-0.00000379,0.00000127,-0.00000037,-0.00000564
 ,0.00000153,0.00000177,0.00000714,-0.00000116,0.00000227,0.00002611,-0
 .00012831,0.00000841,-0.00032925,0.00154771,0.00026719,-0.28642003,-0.
 06505825,0.07407682,0.00122339,-0.00026035,-0.00009158,0.30466835,-0.0
 0198005,-0.00083886,0.00065957,0.00368725,-0.00536024,-0.00301259,0.00
 005107,0.00187626,0.00009228,0.00065782,0.00020510,-0.00045452,0.00000
 112,-0.00008914,-0.00002138,-0.00000248,0.00000772,0.00000324,0.000001
 55,0.00001709,0.00002588,-0.00000807,0.00001569,-0.00003779,-0.0001568
 4,-0.00027268,0.00042695,-0.00001727,0.00002590,-0.00000731,0.00004001
 ,-0.00001407,0.00007778,-0.00007520,-0.00019769,-0.00001984,0.00009164
 ,-0.00004405,0.00003626,-0.00003906,0.00000273,-0.00000326,0.00000265,
 0.00000103,-0.00000185,-0.00001697,0.00000781,0.00000256,-0.00001071,0
 .00000457,0.00000341,-0.00002142,0.00000415,-0.00001955,0.00000784,-0.
 00000496,0.00002329,-0.00000632,0.00000463,-0.00000524,-0.00000560,0.0
 0000103,-0.00000071,-0.00000845,0.00000318,0.00000169,0.00001096,-0.00
 000488,0.00000224,0.00003961,0.00004952,-0.00001672,-0.03877392,-0.017
 60146,0.01325274,-0.05343418,-0.06441993,0.01630850,-0.00036750,0.0011
 8138,0.00031144,0.06893307,0.07838732,0.00015945,-0.00003513,0.0002173
 8,0.00050232,-0.00083814,-0.00026761,0.00032808,0.00116208,0.00043895,
 -0.00006844,-0.00009680,0.00003506,-0.00000397,-0.00000161,-0.00000196
 ,-0.00000219,0.00000041,0.00000166,0.00000136,0.00000431,-0.00000260,0
 .00000521,-0.00000255,0.00001064,-0.00000366,0.00000472,0.00000686,-0.
 00000033,-0.00000114,0.00000138,-0.00000012,-0.00000025,0.00000103,0.0
 0001828,0.00006795,0.00000109,-0.00000931,0.00000103,0.00000197,0.0000
 1891,0.00001258,0.00000453,-0.00001216,0.00000657,0.00000071,0.0000089
 5,-0.00000328,-0.00000855,0.00000518,-0.00000460,0.00000611,-0.0000062
 0,0.00001268,0.00001349,-0.00000288,-0.00000175,-0.00000460,0.00000115
 ,-0.00000126,0.00000178,0.00000164,-0.00000036,-0.00000003,0.00000207,
 -0.00000027,-0.00000071,-0.00000180,-0.00000051,-0.00000167,-0.0000333
 3,0.00004023,-0.00003081,-0.00265713,-0.00229184,-0.00054734,0.0744454
 8,0.02063580,-0.07191405,-0.00028884,0.00008474,0.00083381,-0.08107717
 ,-0.02109868,0.07028154,-0.00020190,-0.00013064,-0.00065939,-0.0002425
 3,-0.00119126,0.00153583,0.00108513,0.00011504,-0.00045830,0.00001236,
 0.00000473,-0.00009326,0.00000003,0.00001288,0.00000169,-0.00000606,0.
 ,0.00000382,0.00000261,0.00000963,-0.00000163,0.00001221,-0.00000996,0
 .00001059,0.00003120,0.00001602,-0.00001184,-0.00000109,-0.00000531,0.
 00000371,-0.00000548,-0.00000061,-0.00000919,-0.00001320,-0.00007084,0
 .00000449,0.00002255,-0.00001252,-0.00001918,0.00000129,0.00001646,-0.
 00000545,-0.00000390,0.00000213,-0.00000413,0.00000753,-0.00000444,-0.
 00000059,-0.00000101,0.00000250,0.00000144,0.00000345,0.00001104,0.000
 01169,-0.00000971,-0.00000469,-0.00000294,0.00000129,-0.00000035,0.000
 00218,0.00000171,-0.00000035,0.00000055,0.00000199,-0.00000030,-0.0000
 0076,-0.00000294,-0.00000015,-0.00000042,-0.00005712,0.00013719,-0.000
 00230,0.00683587,0.00125673,0.00589691,-0.16814929,0.07189592,-0.10787
 888,0.00009566,-0.00005771,-0.00078776,-0.01744328,0.01165645,-0.01871
 778,0.17440831,-0.00164339,-0.00197898,-0.00052634,0.00850797,0.002914
 88,-0.00287600,-0.00256312,0.00162671,0.00141368,0.00120520,0.00124200
 ,-0.00112991,0.00000308,-0.00014154,-0.00004915,-0.00000344,0.00001045
 ,0.00000354,0.00000324,0.00002211,0.00004180,-0.00001426,0.00002001,-0
 .00007291,-0.00015959,-0.00042675,0.00070155,-0.00001713,0.00004194,-0
 .00001244,0.00005576,-0.00001712,0.00009750,-0.00017543,-0.00047318,-0
 .00000285,0.00013769,-0.00005750,0.00004395,-0.00008822,-0.00001419,0.
 00000107,0.00001713,0.00000241,-0.00001013,-0.00003468,0.00001454,0.00
 000766,-0.00001656,0.00000964,0.00000291,-0.00003466,-0.00000961,-0.00
 004407,0.00001527,-0.00000964,0.00003012,-0.00001237,0.00000922,-0.000
 01001,-0.00000993,0.00000194,-0.00000154,-0.00001563,0.00000583,0.0000
 0324,0.00001759,-0.00000728,0.00000480,-0.00011572,-0.00039749,0.00015
 547,0.01786684,-0.03194063,0.01848394,0.06933757,-0.08888837,0.0634971
 6,-0.00018813,-0.00216238,0.00294706,-0.00466976,0.00415387,-0.0057708
 3,-0.08110046,0.11129679,0.00031739,0.00036880,-0.00030501,-0.00202247
 ,0.00035000,0.00129517,0.00022372,-0.00133391,-0.00025816,-0.00026155,
 -0.00023004,0.00017841,0.00000919,0.00004592,0.00001307,0.00000218,-0.
 00000402,-0.00000175,-0.00000246,-0.00000721,-0.00000499,0.00000032,-0
 .00001008,0.00000862,0.00005165,0.00009591,-0.00016728,0.00000545,-0.0
 0000736,0.00000062,-0.00001248,0.00000383,-0.00002554,0.00001096,0.000
 04870,-0.00000143,-0.00001079,0.00001606,-0.00000541,-0.00000456,-0.00
 000156,-0.00001148,0.00000335,-0.00000892,0.00000033,0.00000294,-0.000
 00144,0.00000250,0.00000080,0.00000143,-0.00000204,0.00000524,-0.00000
 950,-0.00000149,-0.00000914,-0.00000027,-0.00000060,0.00000194,0.00000
 007,0.00000192,0.00000128,0.00000006,0.00000062,0.00000235,-0.00000050
 ,-0.00000006,-0.00000261,0.00000213,-0.00000029,0.00002099,-0.00003893
 ,-0.00001025,0.00610093,0.00156891,0.00670928,-0.10758566,0.06547907,-
 0.14798453,0.00007720,-0.00051476,-0.00046197,0.00699842,-0.00531799,0
 .00684782,0.11748339,-0.07208734,0.15276011,0.00007955,-0.00018030,0.0
 0035923,0.00108701,-0.00107989,-0.00113872,-0.00009386,0.00064485,0.00
 015447,0.00009156,0.00012964,-0.00011637,-0.00000911,-0.00001580,-0.00
 001549,-0.00000195,0.00000482,0.00000174,0.00000035,0.00000775,0.00000
 028,0.00000531,0.00000317,0.00000762,-0.00003238,-0.00006607,0.0001165
 6,-0.00000464,0.00000225,-0.00000025,0.00000508,-0.00000604,0.00001880
 ,0.00001570,0.00001527,0.00000885,0.00000783,-0.00000657,-0.00000239,0
 .00002304,0.00001386,0.00000931,-0.00002500,0.00001829,0.00000688,0.00
 000749,0.00000079,-0.00001714,0.00000781,-0.00000979,0.00000808,-0.000
 01554,0.00002037,0.00000976,-0.00000183,-0.00000690,-0.00000252,0.0000
 0057,-0.00000022,0.00000111,0.00000062,-0.00000107,-0.00000080,0.00000
 052,0.00000030,-0.00000041,0.00000065,-0.00000279,-0.00000194,-0.00001
 784,0.00007343,-0.00000201,0.00022060,-0.00039532,-0.00183349,-0.05439
 551,0.01306712,0.03870187,0.00028810,0.00000548,-0.00002445,-0.0022247
 0,0.00974298,0.02738722,0.00361432,-0.00630485,-0.02140797,0.05136624,
 -0.00075225,-0.00171107,0.00075920,0.00635864,0.00217122,-0.00324453,-
 0.00214633,0.00118103,0.00128985,0.00099618,0.00099979,-0.00073014,-0.
 00001937,-0.00014546,-0.00005613,-0.00000342,0.00001233,0.00000519,0.0
 0000807,0.00003171,0.00003440,-0.00000363,0.00001995,-0.00004352,-0.00
 025406,-0.00045788,0.00072414,-0.00001627,0.00003914,-0.00001542,0.000
 05626,-0.00002235,0.00013052,-0.00004114,-0.00014609,0.00000982,0.0000
 8579,-0.00004498,0.00004905,-0.00004450,-0.00000042,0.00000798,-0.0000
 1311,0.00001221,-0.00000086,-0.00001678,0.00001239,-0.00001134,-0.0000
 0306,-0.00000266,0.00001132,-0.00004265,0.00000641,-0.00001937,0.00001
 220,-0.00000881,0.00002348,-0.00000796,0.00000618,-0.00000590,-0.00000
 688,0.00000096,-0.00000178,-0.00001082,0.00000456,0.00000220,0.0000153
 8,-0.00000826,0.00000162,-0.00014120,-0.00001935,0.00011072,0.00592978
 ,-0.02506918,-0.03182213,0.01148441,-0.07024113,-0.07045115,-0.0032345
 3,-0.00325499,-0.00209623,0.00003312,0.00289898,0.00811589,-0.00254711
 ,0.00515231,0.01159295,-0.01567477,0.08858346,-0.00058445,-0.00041667,
 -0.00032538,0.00334270,0.00045104,-0.00026636,-0.00072659,0.00156319,0
 .00031126,0.00023337,0.00018210,-0.00015509,0.00001160,-0.00000585,-0.
 00001507,-0.00000235,-0.00000028,0.00000112,-0.00000042,0.00000581,0.0
 0001058,-0.00000044,-0.00000322,-0.00001704,-0.00004841,-0.00009527,0.
 00009992,-0.00000312,0.00000757,-0.00000140,0.00001599,-0.00000770,0.0
 0002579,-0.00003503,-0.00009170,-0.00000327,0.00002569,-0.00001702,0.0
 0001035,-0.00002283,0.00000144,-0.00000371,0.00000526,-0.00000944,-0.0
 0000820,-0.00000172,0.00000090,0.00000404,-0.00000669,0.00000600,0.000
 00394,-0.00000216,-0.00000689,-0.00000536,-0.00000273,0.00000094,0.000
 00980,-0.00000133,0.00000274,-0.00000090,-0.00000226,0.00000081,0.0000
 0015,-0.00000259,0.00000146,0.00000108,0.00000311,-0.00000060,0.000001
 74,-0.00010270,0.00004774,0.00002034,-0.00049853,-0.00595258,0.0071662
 1,0.03812272,-0.07592028,-0.28508690,-0.00126457,0.00067788,-0.0006605
 4,0.00007882,-0.00121042,-0.00592588,0.00369750,-0.00484190,-0.0185762
 1,-0.04222784,0.08563021,0.30338501\\-0.00000022,0.00000030,-0.0000004
 5,-0.00000032,0.00000089,-0.00000056,-0.00000052,0.00000008,-0.0000003
 3,0.00000065,0.00000041,-0.00000029,0.00000119,0.00000028,-0.00000022,
 0.00000107,-0.00000012,0.00000004,0.00000173,0.00000038,-0.00000036,0.
 00000086,0.00000053,-0.00000053,0.00000126,0.00000010,-0.00000006,0.00
 000158,0.00000043,-0.00000040,0.00000156,-0.00000018,0.00000017,0.0000
 0083,0.00000009,-0.00000006,0.00000023,-0.00000042,0.00000037,-0.00000
 039,-0.00000051,0.00000055,-0.00000076,-0.00000098,0.00000086,-0.00000
 052,-0.00000137,0.00000120,0.00000018,-0.00000130,0.00000115,0.0000005
 2,-0.00000072,0.00000085,-0.00000078,-0.00000020,0.00000021,-0.0000013
 1,-0.00000103,0.00000094,-0.00000073,-0.00000173,0.00000156,0.00000041
 ,-0.00000157,0.00000140,0.00000101,-0.00000080,0.00000058,0.00000035,0
 .00000113,-0.00000106,-0.00000099,0.00000097,-0.00000070,-0.00000146,0
 .00000070,-0.00000094,-0.00000082,0.00000140,-0.00000115,-0.00000155,0
 .00000139,-0.00000129,-0.00000184,0.00000086,-0.00000063,-0.00000122,0
 .00000098,-0.00000082\\\@


 ALL THINGS ARE POSSIBLE EXCEPT SKIING THROUGH A REVOLVING DOOR.
 Job cpu time:       0 days 21 hours  5 minutes 56.1 seconds.
 Elapsed time:       0 days  1 hours 19 minutes 14.9 seconds.
 File lengths (MBytes):  RWF=   1273 Int=      0 D2E=      0 Chk=     44 Scr=      1
 Normal termination of Gaussian 16 at Sat Feb 20 18:21:44 2021.
