 Entering Gaussian System, Link 0=g16
 Initial command:
 /apps/gaussian/16/A.03/g16/l1.exe "/beegfs/scratch/user/q/tla25/Gau-15074.inp" -scrdir="/beegfs/scratch/user/q/tla25/"
 Entering Link 1 = /apps/gaussian/16/A.03/g16/l1.exe PID=     15075.
  
 Copyright (c) 1988,1990,1992,1993,1995,1998,2003,2009,2016,
            Gaussian, Inc.  All Rights Reserved.
  
 This is part of the Gaussian(R) 16 program.  It is based on
 the Gaussian(R) 09 system (copyright 2009, Gaussian, Inc.),
 the Gaussian(R) 03 system (copyright 2003, Gaussian, Inc.),
 the Gaussian(R) 98 system (copyright 1998, Gaussian, Inc.),
 the Gaussian(R) 94 system (copyright 1995, Gaussian, Inc.),
 the Gaussian 92(TM) system (copyright 1992, Gaussian, Inc.),
 the Gaussian 90(TM) system (copyright 1990, Gaussian, Inc.),
 the Gaussian 88(TM) system (copyright 1988, Gaussian, Inc.),
 the Gaussian 86(TM) system (copyright 1986, Carnegie Mellon
 University), and the Gaussian 82(TM) system (copyright 1983,
 Carnegie Mellon University). Gaussian is a federally registered
 trademark of Gaussian, Inc.
  
 This software contains proprietary and confidential information,
 including trade secrets, belonging to Gaussian, Inc.
  
 This software is provided under written license and may be
 used, copied, transmitted, or stored only in accord with that
 written license.
  
 The following legend is applicable only to US Government
 contracts under FAR:
  
                    RESTRICTED RIGHTS LEGEND
  
 Use, reproduction and disclosure by the US Government is
 subject to restrictions as set forth in subparagraphs (a)
 and (c) of the Commercial Computer Software - Restricted
 Rights clause in FAR 52.227-19.
  
 Gaussian, Inc.
 340 Quinnipiac St., Bldg. 40, Wallingford CT 06492
  
  
 ---------------------------------------------------------------
 Warning -- This program may not be used in any manner that
 competes with the business of Gaussian, Inc. or will provide
 assistance to any competitor of Gaussian, Inc.  The licensee
 of this program is prohibited from giving any competitor of
 Gaussian, Inc. access to this program.  By using this program,
 the user acknowledges that Gaussian, Inc. is engaged in the
 business of creating and licensing software in the field of
 computational chemistry and represents and warrants to the
 licensee that it is not a competitor of Gaussian, Inc. and that
 it will not use this program in any manner prohibited above.
 ---------------------------------------------------------------
  

 Cite this work as:
 Gaussian 16, Revision A.03,
 M. J. Frisch, G. W. Trucks, H. B. Schlegel, G. E. Scuseria, 
 M. A. Robb, J. R. Cheeseman, G. Scalmani, V. Barone, 
 G. A. Petersson, H. Nakatsuji, X. Li, M. Caricato, A. V. Marenich, 
 J. Bloino, B. G. Janesko, R. Gomperts, B. Mennucci, H. P. Hratchian, 
 J. V. Ortiz, A. F. Izmaylov, J. L. Sonnenberg, D. Williams-Young, 
 F. Ding, F. Lipparini, F. Egidi, J. Goings, B. Peng, A. Petrone, 
 T. Henderson, D. Ranasinghe, V. G. Zakrzewski, J. Gao, N. Rega, 
 G. Zheng, W. Liang, M. Hada, M. Ehara, K. Toyota, R. Fukuda, 
 J. Hasegawa, M. Ishida, T. Nakajima, Y. Honda, O. Kitao, H. Nakai, 
 T. Vreven, K. Throssell, J. A. Montgomery, Jr., J. E. Peralta, 
 F. Ogliaro, M. J. Bearpark, J. J. Heyd, E. N. Brothers, K. N. Kudin, 
 V. N. Staroverov, T. A. Keith, R. Kobayashi, J. Normand, 
 K. Raghavachari, A. P. Rendell, J. C. Burant, S. S. Iyengar, 
 J. Tomasi, M. Cossi, J. M. Millam, M. Klene, C. Adamo, R. Cammi, 
 J. W. Ochterski, R. L. Martin, K. Morokuma, O. Farkas, 
 J. B. Foresman, and D. J. Fox, Gaussian, Inc., Wallingford CT, 2016.
 
 ******************************************
 Gaussian 16:  ES64L-G16RevA.03 25-Dec-2016
                18-Feb-2021 
 ******************************************
 %nprocshared=16
 Will use up to   16 processors via shared memory.
 %mem=48GB
 ----------------------------------------------------------------------
 # wB97XD def2tzvp, opt=(ts, noeigen, calcfc, maxcycles=70, maxstep=1),
  freq=noraman, scrf=(iefpcm, solvent=water)
 ----------------------------------------------------------------------
 1/5=1,6=70,8=1,10=4,11=1,18=20,26=3,38=1/1,3;
 2/9=110,12=2,17=6,18=5,40=1/2;
 3/5=44,7=101,11=2,25=1,30=1,70=2201,71=2,72=1,74=-58,140=1/1,2,3;
 4//1;
 5/5=2,38=5,53=1/2;
 8/6=4,10=90,11=11/1;
 11/6=1,8=1,9=11,15=111,16=1/1,2,10;
 10/6=1,13=1/2;
 6/7=2,8=2,9=2,10=2,28=1/1;
 7/10=1,18=20,25=1/1,2,3,16;
 1/5=1,6=70,8=1,10=4,11=1,18=20,26=3/3(2);
 2/9=110/2;
 99//99;
 2/9=110/2;
 3/5=44,7=101,11=2,25=1,30=1,70=2205,71=1,72=1,74=-58/1,2,3;
 4/5=5,16=3,69=1/1;
 5/5=2,38=5,53=1/2;
 7//1,2,3,16;
 1/5=1,6=70,8=1,11=1,18=20,26=3/3(-5);
 2/9=110/2;
 6/7=2,8=2,9=2,10=2,19=2,28=1/1;
 99/9=1/99;
 ------------------------
 0_iteration/TS-650-0.out
 ------------------------
 Symbolic Z-matrix:
 Charge =  0 Multiplicity = 1
 C                    -0.92641  -0.72333  -0.43456 
 C                    -2.30126  -0.63582  -0.08493 
 O                    -3.16686  -1.30596  -0.66948 
 C                     0.07879   0.04083   0.14514 
 C                     0.12301   2.81413   0.0324 
 H                     0.23949   3.73021  -0.54509 
 H                    -0.9017    2.74693   0.39348 
 H                     0.80343   2.83525   0.8817 
 N                     0.41704   1.63468  -0.78229 
 H                    -0.2113    1.55915  -1.5749 
 H                     1.36946   1.64909  -1.13094 
 Br                    1.86734  -0.71668   0.14536 
 H                    -0.09282   0.52384   1.09733 
 H                    -0.67633  -1.38273  -1.25702 
 C                    -2.7657    0.30284   1.01544 
 H                    -3.0729    1.25068   0.5667 
 H                    -3.63771  -0.1334    1.50067 
 H                    -2.01131   0.51772   1.77146 
 
 Add virtual bond connecting atoms N9         and C4         Dist= 3.54D+00.

 GradGradGradGradGradGradGradGradGradGradGradGradGradGradGradGradGradGrad
 Berny optimization.
 Initialization pass.
                           ----------------------------
                           !    Initial Parameters    !
                           ! (Angstroms and Degrees)  !
 --------------------------                            --------------------------
 ! Name  Definition              Value          Derivative Info.                !
 --------------------------------------------------------------------------------
 ! R1    R(1,2)                  1.4213         calculate D2E/DX2 analytically  !
 ! R2    R(1,4)                  1.3894         calculate D2E/DX2 analytically  !
 ! R3    R(1,14)                 1.0834         calculate D2E/DX2 analytically  !
 ! R4    R(2,3)                  1.241          calculate D2E/DX2 analytically  !
 ! R5    R(2,15)                 1.5191         calculate D2E/DX2 analytically  !
 ! R6    R(4,9)                  1.8748         calculate D2E/DX2 analytically  !
 ! R7    R(4,12)                 1.9424         calculate D2E/DX2 analytically  !
 ! R8    R(4,13)                 1.0814         calculate D2E/DX2 analytically  !
 ! R9    R(5,6)                  1.0892         calculate D2E/DX2 analytically  !
 ! R10   R(5,7)                  1.0885         calculate D2E/DX2 analytically  !
 ! R11   R(5,8)                  1.0885         calculate D2E/DX2 analytically  !
 ! R12   R(5,9)                  1.4633         calculate D2E/DX2 analytically  !
 ! R13   R(9,10)                 1.0143         calculate D2E/DX2 analytically  !
 ! R14   R(9,11)                 1.0143         calculate D2E/DX2 analytically  !
 ! R15   R(15,16)                1.0928         calculate D2E/DX2 analytically  !
 ! R16   R(15,17)                1.0891         calculate D2E/DX2 analytically  !
 ! R17   R(15,18)                1.0894         calculate D2E/DX2 analytically  !
 ! A1    A(2,1,4)              124.2867         calculate D2E/DX2 analytically  !
 ! A2    A(2,1,14)             116.5831         calculate D2E/DX2 analytically  !
 ! A3    A(4,1,14)             118.9785         calculate D2E/DX2 analytically  !
 ! A4    A(1,2,3)              121.7081         calculate D2E/DX2 analytically  !
 ! A5    A(1,2,15)             120.7957         calculate D2E/DX2 analytically  !
 ! A6    A(3,2,15)             117.492          calculate D2E/DX2 analytically  !
 ! A7    A(1,4,9)              113.0607         calculate D2E/DX2 analytically  !
 ! A8    A(1,4,12)             116.8556         calculate D2E/DX2 analytically  !
 ! A9    A(1,4,13)             119.8828         calculate D2E/DX2 analytically  !
 ! A10   A(9,4,12)              99.5249         calculate D2E/DX2 analytically  !
 ! A11   A(9,4,13)              94.8466         calculate D2E/DX2 analytically  !
 ! A12   A(12,4,13)            108.6763         calculate D2E/DX2 analytically  !
 ! A13   A(6,5,7)              109.1763         calculate D2E/DX2 analytically  !
 ! A14   A(6,5,8)              109.3018         calculate D2E/DX2 analytically  !
 ! A15   A(6,5,9)              111.1768         calculate D2E/DX2 analytically  !
 ! A16   A(7,5,8)              109.3197         calculate D2E/DX2 analytically  !
 ! A17   A(7,5,9)              108.9093         calculate D2E/DX2 analytically  !
 ! A18   A(8,5,9)              108.9321         calculate D2E/DX2 analytically  !
 ! A19   A(4,9,5)              111.9356         calculate D2E/DX2 analytically  !
 ! A20   A(4,9,10)             102.21           calculate D2E/DX2 analytically  !
 ! A21   A(4,9,11)             110.5802         calculate D2E/DX2 analytically  !
 ! A22   A(5,9,10)             111.7536         calculate D2E/DX2 analytically  !
 ! A23   A(5,9,11)             111.6285         calculate D2E/DX2 analytically  !
 ! A24   A(10,9,11)            108.3088         calculate D2E/DX2 analytically  !
 ! A25   A(2,15,16)            108.9326         calculate D2E/DX2 analytically  !
 ! A26   A(2,15,17)            108.6639         calculate D2E/DX2 analytically  !
 ! A27   A(2,15,18)            114.3839         calculate D2E/DX2 analytically  !
 ! A28   A(16,15,17)           107.776          calculate D2E/DX2 analytically  !
 ! A29   A(16,15,18)           107.9723         calculate D2E/DX2 analytically  !
 ! A30   A(17,15,18)           108.9206         calculate D2E/DX2 analytically  !
 ! D1    D(4,1,2,3)            177.2288         calculate D2E/DX2 analytically  !
 ! D2    D(4,1,2,15)            -2.0005         calculate D2E/DX2 analytically  !
 ! D3    D(14,1,2,3)             1.7645         calculate D2E/DX2 analytically  !
 ! D4    D(14,1,2,15)         -177.4648         calculate D2E/DX2 analytically  !
 ! D5    D(2,1,4,9)            -91.7492         calculate D2E/DX2 analytically  !
 ! D6    D(2,1,4,12)           153.5956         calculate D2E/DX2 analytically  !
 ! D7    D(2,1,4,13)            18.7711         calculate D2E/DX2 analytically  !
 ! D8    D(14,1,4,9)            83.6139         calculate D2E/DX2 analytically  !
 ! D9    D(14,1,4,12)          -31.0414         calculate D2E/DX2 analytically  !
 ! D10   D(14,1,4,13)         -165.8658         calculate D2E/DX2 analytically  !
 ! D11   D(1,2,15,16)           94.1081         calculate D2E/DX2 analytically  !
 ! D12   D(1,2,15,17)         -148.7282         calculate D2E/DX2 analytically  !
 ! D13   D(1,2,15,18)          -26.7981         calculate D2E/DX2 analytically  !
 ! D14   D(3,2,15,16)          -85.1528         calculate D2E/DX2 analytically  !
 ! D15   D(3,2,15,17)           32.011          calculate D2E/DX2 analytically  !
 ! D16   D(3,2,15,18)          153.9411         calculate D2E/DX2 analytically  !
 ! D17   D(1,4,9,5)            116.7309         calculate D2E/DX2 analytically  !
 ! D18   D(1,4,9,10)            -3.0003         calculate D2E/DX2 analytically  !
 ! D19   D(1,4,9,11)          -118.1237         calculate D2E/DX2 analytically  !
 ! D20   D(12,4,9,5)          -118.5696         calculate D2E/DX2 analytically  !
 ! D21   D(12,4,9,10)          121.6993         calculate D2E/DX2 analytically  !
 ! D22   D(12,4,9,11)            6.5758         calculate D2E/DX2 analytically  !
 ! D23   D(13,4,9,5)            -8.6872         calculate D2E/DX2 analytically  !
 ! D24   D(13,4,9,10)         -128.4184         calculate D2E/DX2 analytically  !
 ! D25   D(13,4,9,11)          116.4582         calculate D2E/DX2 analytically  !
 ! D26   D(6,5,9,4)           -175.0058         calculate D2E/DX2 analytically  !
 ! D27   D(6,5,9,10)           -61.0406         calculate D2E/DX2 analytically  !
 ! D28   D(6,5,9,11)            60.4298         calculate D2E/DX2 analytically  !
 ! D29   D(7,5,9,4)            -54.6698         calculate D2E/DX2 analytically  !
 ! D30   D(7,5,9,10)            59.2953         calculate D2E/DX2 analytically  !
 ! D31   D(7,5,9,11)          -179.2342         calculate D2E/DX2 analytically  !
 ! D32   D(8,5,9,4)             64.4876         calculate D2E/DX2 analytically  !
 ! D33   D(8,5,9,10)           178.4527         calculate D2E/DX2 analytically  !
 ! D34   D(8,5,9,11)           -60.0768         calculate D2E/DX2 analytically  !
 --------------------------------------------------------------------------------
 Trust Radius=1.00D-02 FncErr=1.00D-07 GrdErr=1.00D-06 EigMax=2.50D+02 EigMin=1.00D-04
 Number of steps in this run=     70 maximum allowed number of steps=    108.
 Search for a saddle point of order  1.
 GradGradGradGradGradGradGradGradGradGradGradGradGradGradGradGradGradGrad

                          Input orientation:                          
 ---------------------------------------------------------------------
 Center     Atomic      Atomic             Coordinates (Angstroms)
 Number     Number       Type             X           Y           Z
 ---------------------------------------------------------------------
      1          6           0       -0.926410   -0.723330   -0.434560
      2          6           0       -2.301260   -0.635820   -0.084930
      3          8           0       -3.166860   -1.305960   -0.669480
      4          6           0        0.078790    0.040830    0.145140
      5          6           0        0.123010    2.814130    0.032400
      6          1           0        0.239490    3.730210   -0.545090
      7          1           0       -0.901700    2.746930    0.393480
      8          1           0        0.803430    2.835250    0.881700
      9          7           0        0.417040    1.634680   -0.782290
     10          1           0       -0.211300    1.559150   -1.574900
     11          1           0        1.369460    1.649090   -1.130940
     12         35           0        1.867340   -0.716680    0.145360
     13          1           0       -0.092820    0.523840    1.097330
     14          1           0       -0.676330   -1.382730   -1.257020
     15          6           0       -2.765700    0.302840    1.015440
     16          1           0       -3.072900    1.250680    0.566700
     17          1           0       -3.637710   -0.133400    1.500670
     18          1           0       -2.011310    0.517720    1.771460
 ---------------------------------------------------------------------
                    Distance matrix (angstroms):
                    1          2          3          4          5
     1  C    0.000000
     2  C    1.421306   0.000000
     3  O    2.326857   1.240987   0.000000
     4  C    1.389395   2.485040   3.607172   0.000000
     5  C    3.719268   4.218176   5.318931   2.775943   0.000000
     6  H    4.604949   5.072413   6.081258   3.756829   1.089158
     7  H    3.567768   3.691970   4.763061   2.888946   1.088543
     8  H    4.169937   4.756238   5.942978   2.979330   1.088452
     9  N    2.736053   3.609797   4.637287   1.874806   1.463310
    10  H    2.649806   3.377253   4.214733   2.312571   2.066434
    11  H    3.374069   4.448498   5.433550   2.425017   2.065022
    12  Br   2.853312   4.175739   5.133652   1.942352   3.939805
    13  H    2.144060   2.760391   3.989926   1.081395   2.534973
    14  H    1.083415   2.138239   2.560046   2.136067   4.462643
    15  C    2.557052   1.519079   2.363921   2.986167   3.951910
    16  H    3.083287   2.139844   2.841369   3.402146   3.597734
    17  H    3.382940   2.133694   2.511204   3.959822   4.998676
    18  H    2.753859   2.204747   3.258726   2.690884   3.585129
                    6          7          8          9         10
     6  H    0.000000
     7  H    1.774843   0.000000
     8  H    1.776151   1.775846   0.000000
     9  N    2.116373   2.087729   2.087948   0.000000
    10  H    2.444836   2.400415   2.948388   1.014271   0.000000
    11  H    2.439490   2.947419   2.403765   1.014331   1.644382
    12  Br   4.785546   4.441367   3.780252   2.914241   3.529793
    13  H    3.617842   2.468161   2.488449   2.242074   2.868225
    14  H    5.242874   4.452980   4.955317   3.244317   2.995323
    15  C    4.818017   3.136065   4.378319   3.890432   3.848784
    16  H    4.284399   2.642514   4.199526   3.761238   3.587528
    17  H    5.843398   4.124066   5.377707   4.977852   4.905522
    18  H    4.555502   2.845952   3.753049   3.696772   3.939891
                   11         12         13         14         15
    11  H    0.000000
    12  Br   2.733806   0.000000
    13  H    2.893033   2.507462   0.000000
    14  H    3.659656   2.980025   3.085200   0.000000
    15  C    4.849627   4.823020   2.683251   3.517199   0.000000
    16  H    4.772345   5.334229   3.112996   4.000544   1.092767
    17  H    5.930800   5.699356   3.627794   4.235027   1.089107
    18  H    4.597122   4.383135   2.033493   3.816487   1.089424
                   16         17         18
    16  H    0.000000
    17  H    1.762665   0.000000
    18  H    1.765120   1.772699   0.000000
 Stoichiometry    C5H10BrNO
 Framework group  C1[X(C5H10BrNO)]
 Deg. of freedom    48
 Full point group                 C1      NOp   1
 Largest Abelian subgroup         C1      NOp   1
 Largest concise Abelian subgroup C1      NOp   1
                         Standard orientation:                         
 ---------------------------------------------------------------------
 Center     Atomic      Atomic             Coordinates (Angstroms)
 Number     Number       Type             X           Y           Z
 ---------------------------------------------------------------------
      1          6           0       -0.926411   -0.723331   -0.434561
      2          6           0       -2.301261   -0.635823   -0.084931
      3          8           0       -3.166860   -1.305965   -0.669481
      4          6           0        0.078788    0.040831    0.145139
      5          6           0        0.123003    2.814131    0.032399
      6          1           0        0.239481    3.730211   -0.545091
      7          1           0       -0.901707    2.746929    0.393479
      8          1           0        0.803423    2.835252    0.881699
      9          7           0        0.417035    1.634682   -0.782291
     10          1           0       -0.211305    1.559151   -1.574901
     11          1           0        1.369455    1.649093   -1.130941
     12         35           0        1.867339   -0.716676    0.145359
     13          1           0       -0.092823    0.523841    1.097329
     14          1           0       -0.676330   -1.382730   -1.257021
     15          6           0       -2.765703    0.302836    1.015439
     16          1           0       -3.072904    1.250675    0.566699
     17          1           0       -3.637712   -0.133406    1.500669
     18          1           0       -2.011313    0.517717    1.771459
 ---------------------------------------------------------------------
 Rotational constants (GHZ):           1.7139662           0.7459360           0.5736174
 Standard basis: def2TZVP (5D, 7F)
 There are   367 symmetry adapted cartesian basis functions of A   symmetry.
 There are   325 symmetry adapted basis functions of A   symmetry.
   325 basis functions,   551 primitive gaussians,   367 cartesian basis functions
    45 alpha electrons       45 beta electrons
       nuclear repulsion energy       590.9034268789 Hartrees.
 NAtoms=   18 NActive=   18 NUniq=   18 SFac= 1.00D+00 NAtFMM=   60 NAOKFM=F Big=F
 Integral buffers will be    131072 words long.
 Raffenetti 2 integral format.
 Two-electron integral symmetry is turned on.
 Nuclear repulsion after empirical dispersion term =      590.8924595436 Hartrees.
 Force inversion solution in PCM.
 ------------------------------------------------------------------------------
 Polarizable Continuum Model (PCM)
 =================================
 Model                : PCM.
 Atomic radii         : UFF (Universal Force Field).
 Polarization charges : Total charges.
 Charge compensation  : None.
 Solution method      : Matrix inversion.
 Cavity type          : Scaled VdW (van der Waals Surface) (Alpha=1.100).
 Cavity algorithm     : GePol (No added spheres)
                        Default sphere list used, NSphG=   18.
                        Lebedev-Laikov grids with approx.  5.0 points / Ang**2.
                        Smoothing algorithm: York/Karplus (Gamma=1.0000).
                        Polarization charges: spherical gaussians, with
                                              point-specific exponents (IZeta= 3).
                        Self-potential: point-specific (ISelfS= 7).
                        Self-field    : sphere-specific E.n sum rule (ISelfD= 2).
 1st derivatives      : Analytical E(r).r(x)/FMM algorithm (CHGder, D1EAlg=3).
                        Cavity 1st derivative terms included.
 2nd derivatives      : Analytical E(r).r(xy)/FMM algorithm (CHGder, D2EAlg=3).
                        Cavity 2nd derivative terms included.
 Solvent              : Water, Eps=  78.355300 Eps(inf)=   1.777849
 ------------------------------------------------------------------------------
 Spheres list:
 ISph  on   Nord     Re0    Alpha      Xe            Ye            Ze
    1   C      1    1.9255  1.100     -0.926411     -0.723331     -0.434561
    2   C      2    1.9255  1.100     -2.301261     -0.635823     -0.084931
    3   O      3    1.7500  1.100     -3.166860     -1.305965     -0.669481
    4   C      4    1.9255  1.100      0.078788      0.040831      0.145139
    5   C      5    1.9255  1.100      0.123003      2.814131      0.032399
    6   H      6    1.4430  1.100      0.239481      3.730211     -0.545091
    7   H      7    1.4430  1.100     -0.901707      2.746929      0.393479
    8   H      8    1.4430  1.100      0.803423      2.835252      0.881699
    9   N      9    1.8300  1.100      0.417035      1.634682     -0.782291
   10   H     10    1.4430  1.100     -0.211305      1.559151     -1.574901
   11   H     11    1.4430  1.100      1.369455      1.649093     -1.130941
   12  Br     12    2.0945  1.100      1.867339     -0.716676      0.145359
   13   H     13    1.4430  1.100     -0.092823      0.523841      1.097329
   14   H     14    1.4430  1.100     -0.676330     -1.382730     -1.257021
   15   C     15    1.9255  1.100     -2.765703      0.302836      1.015439
   16   H     16    1.4430  1.100     -3.072904      1.250675      0.566699
   17   H     17    1.4430  1.100     -3.637712     -0.133406      1.500669
   18   H     18    1.4430  1.100     -2.011313      0.517717      1.771459
 ------------------------------------------------------------------------------
 One-electron integrals computed using PRISM.
   1 Symmetry operations used in ECPInt.
 ECPInt:  NShTT=    8911 NPrTT=   28930 LenC2=    8599 LenP2D=   21474.
 LDataN:  DoStor=T MaxTD1= 6 Len=  172
 NBasis=   325 RedAO= T EigKep=  9.83D-05  NBF=   325
 NBsUse=   325 1.00D-06 EigRej= -1.00D+00 NBFU=   325
 ExpMin= 9.52D-02 ExpMax= 5.65D+05 ExpMxC= 5.46D+03 IAcc=3 IRadAn=         5 AccDes= 0.00D+00
 Harris functional with IExCor= 4639 and IRadAn=       5 diagonalized for initial guess.
 HarFok:  IExCor= 4639 AccDes= 0.00D+00 IRadAn=         5 IDoV= 1 UseB2=F ITyADJ=14
 ICtDFT=  3500011 ScaDFX=  1.000000  1.000000  1.000000  1.000000
 FoFCou: FMM=F IPFlag=           0 FMFlag=      100000 FMFlg1=           0
         NFxFlg=           0 DoJE=T BraDBF=F KetDBF=T FulRan=T
         wScrn=  0.000000 ICntrl=       500 IOpCl=  0 I1Cent=   200000004 NGrid=           0
         NMat0=    1 NMatS0=      1 NMatT0=    0 NMatD0=    1 NMtDS0=    0 NMtDT0=    0
 Petite list used in FoFCou.
 Requested convergence on RMS density matrix=1.00D-08 within 128 cycles.
 Requested convergence on MAX density matrix=1.00D-06.
 Requested convergence on             energy=1.00D-06.
 No special actions if energy rises.
 Inv3:  Mode=1 IEnd=     7244748.
 Iteration    1 A*A^-1 deviation from unit magnitude is 4.77D-15 for   1554.
 Iteration    1 A*A^-1 deviation from orthogonality  is 1.39D-15 for   1533   1411.
 Iteration    1 A^-1*A deviation from unit magnitude is 5.00D-15 for   1554.
 Iteration    1 A^-1*A deviation from orthogonality  is 6.86D-15 for   1047    981.
 Error on total polarization charges =  0.01415
 SCF Done:  E(RwB97XD) =  -2900.71957478     A.U. after   15 cycles
            NFock= 15  Conv=0.35D-08     -V/T= 2.0018
 DoSCS=F DFT=T ScalE2(SS,OS)=  1.000000  1.000000
 Range of M.O.s used for correlation:     1   325
 NBasis=   325 NAE=    45 NBE=    45 NFC=     0 NFV=     0
 NROrb=    325 NOA=    45 NOB=    45 NVA=   280 NVB=   280

 **** Warning!!: The largest alpha MO coefficient is  0.19720139D+02

   1 Symmetry operations used in ECPInt.
 ECPInt:  NShTT=    8911 NPrTT=   28930 LenC2=    8599 LenP2D=   21474.
 LDataN:  DoStor=T MaxTD1= 7 Len=  274
 Symmetrizing basis deriv contribution to polar:
 IMax=3 JMax=2 DiffMx= 0.00D+00
 G2DrvN: will do    19 centers at a time, making    1 passes.
 Calling FoFCou, ICntrl=  3107 FMM=F I1Cent=   0 AccDes= 0.00D+00.
 NEqPCM:  Using equilibrium solvation (IEInf=0, Eps=  78.3553, EpsInf=   1.7778)
 G2PCM: DoFxE=T DoFxN=T DoGrad=T DoDP/DQ/DG/TGxP=FFFF NFrqRd=   0 IEInf=0 SqF1=F DoCFld=F IF1Alg=4.
 End of G2Drv F.D. properties file   721 does not exist.
 End of G2Drv F.D. properties file   722 does not exist.
 End of G2Drv F.D. properties file   788 does not exist.
          IDoAtm=111111111111111111
 NEqPCM:  Using equilibrium solvation (IEInf=0, Eps=  78.3553, EpsInf=   1.7778)
          Differentiating once with respect to nuclear coordinates.
 Keep R1 ints in memory in canonical form, NReq=2831331171.
          There are    57 degrees of freedom in the 1st order CPHF.  IDoFFX=6 NUNeed=     0.
     51 vectors produced by pass  0 Test12= 2.21D-14 1.75D-09 XBig12= 9.68D-02 1.21D-01.
 AX will form    51 AO Fock derivatives at one time.
     51 vectors produced by pass  1 Test12= 2.21D-14 1.75D-09 XBig12= 2.46D-02 4.14D-02.
     51 vectors produced by pass  2 Test12= 2.21D-14 1.75D-09 XBig12= 5.69D-04 4.89D-03.
     51 vectors produced by pass  3 Test12= 2.21D-14 1.75D-09 XBig12= 7.28D-06 4.29D-04.
     51 vectors produced by pass  4 Test12= 2.21D-14 1.75D-09 XBig12= 8.21D-08 3.38D-05.
     51 vectors produced by pass  5 Test12= 2.21D-14 1.75D-09 XBig12= 7.56D-10 3.21D-06.
     50 vectors produced by pass  6 Test12= 2.21D-14 1.75D-09 XBig12= 5.50D-12 2.02D-07.
     16 vectors produced by pass  7 Test12= 2.21D-14 1.75D-09 XBig12= 3.65D-14 2.13D-08.
      2 vectors produced by pass  8 Test12= 2.21D-14 1.75D-09 XBig12= 2.30D-16 1.99D-09.
 InvSVY:  IOpt=1 It=  1 EMax= 2.78D-16
 Solved reduced A of dimension   374 with    57 vectors.
 End of Minotr F.D. properties file   721 does not exist.
 End of Minotr F.D. properties file   722 does not exist.
 End of Minotr F.D. properties file   788 does not exist.

 **********************************************************************

            Population analysis using the SCF density.

 **********************************************************************

 Orbital symmetries:
       Occupied  (A) (A) (A) (A) (A) (A) (A) (A) (A) (A) (A) (A)
                 (A) (A) (A) (A) (A) (A) (A) (A) (A) (A) (A) (A)
                 (A) (A) (A) (A) (A) (A) (A) (A) (A) (A) (A) (A)
                 (A) (A) (A) (A) (A) (A) (A) (A) (A)
       Virtual   (A) (A) (A) (A) (A) (A) (A) (A) (A) (A) (A) (A)
                 (A) (A) (A) (A) (A) (A) (A) (A) (A) (A) (A) (A)
                 (A) (A) (A) (A) (A) (A) (A) (A) (A) (A) (A) (A)
                 (A) (A) (A) (A) (A) (A) (A) (A) (A) (A) (A) (A)
                 (A) (A) (A) (A) (A) (A) (A) (A) (A) (A) (A) (A)
                 (A) (A) (A) (A) (A) (A) (A) (A) (A) (A) (A) (A)
                 (A) (A) (A) (A) (A) (A) (A) (A) (A) (A) (A) (A)
                 (A) (A) (A) (A) (A) (A) (A) (A) (A) (A) (A) (A)
                 (A) (A) (A) (A) (A) (A) (A) (A) (A) (A) (A) (A)
                 (A) (A) (A) (A) (A) (A) (A) (A) (A) (A) (A) (A)
                 (A) (A) (A) (A) (A) (A) (A) (A) (A) (A) (A) (A)
                 (A) (A) (A) (A) (A) (A) (A) (A) (A) (A) (A) (A)
                 (A) (A) (A) (A) (A) (A) (A) (A) (A) (A) (A) (A)
                 (A) (A) (A) (A) (A) (A) (A) (A) (A) (A) (A) (A)
                 (A) (A) (A) (A) (A) (A) (A) (A) (A) (A) (A) (A)
                 (A) (A) (A) (A) (A) (A) (A) (A) (A) (A) (A) (A)
                 (A) (A) (A) (A) (A) (A) (A) (A) (A) (A) (A) (A)
                 (A) (A) (A) (A) (A) (A) (A) (A) (A) (A) (A) (A)
                 (A) (A) (A) (A) (A) (A) (A) (A) (A) (A) (A) (A)
                 (A) (A) (A) (A) (A) (A) (A) (A) (A) (A) (A) (A)
                 (A) (A) (A) (A) (A) (A) (A) (A) (A) (A) (A) (A)
                 (A) (A) (A) (A) (A) (A) (A) (A) (A) (A) (A) (A)
                 (A) (A) (A) (A) (A) (A) (A) (A) (A) (A) (A) (A)
                 (A) (A) (A) (A)
 The electronic state is 1-A.
 Alpha  occ. eigenvalues -- -483.13311 -62.68182 -56.47288 -56.46944 -56.46933
 Alpha  occ. eigenvalues --  -19.19671 -14.50124 -10.39227 -10.34957 -10.32656
 Alpha  occ. eigenvalues --  -10.27239 -10.25225  -8.82307  -6.64440  -6.63341
 Alpha  occ. eigenvalues --   -6.63305  -2.74829  -2.74518  -2.74489  -2.73601
 Alpha  occ. eigenvalues --   -2.73600  -1.10298  -1.05321  -0.92860  -0.85668
 Alpha  occ. eigenvalues --   -0.80870  -0.79705  -0.71523  -0.64505  -0.62345
 Alpha  occ. eigenvalues --   -0.57508  -0.55528  -0.55255  -0.52812  -0.51391
 Alpha  occ. eigenvalues --   -0.49187  -0.47559  -0.46927  -0.46754  -0.44743
 Alpha  occ. eigenvalues --   -0.42318  -0.37953  -0.37549  -0.31717  -0.28038
 Alpha virt. eigenvalues --    0.04505   0.06091   0.10351   0.12908   0.13583
 Alpha virt. eigenvalues --    0.14854   0.15759   0.17361   0.17534   0.18680
 Alpha virt. eigenvalues --    0.20323   0.20783   0.22303   0.23020   0.23678
 Alpha virt. eigenvalues --    0.25774   0.27037   0.27906   0.28847   0.29945
 Alpha virt. eigenvalues --    0.30991   0.31302   0.32384   0.32836   0.33803
 Alpha virt. eigenvalues --    0.34485   0.36744   0.37939   0.39885   0.40187
 Alpha virt. eigenvalues --    0.41586   0.43452   0.43885   0.44798   0.45959
 Alpha virt. eigenvalues --    0.47031   0.48492   0.49026   0.49476   0.50475
 Alpha virt. eigenvalues --    0.51553   0.52096   0.53122   0.53597   0.54549
 Alpha virt. eigenvalues --    0.55461   0.56466   0.56776   0.57184   0.58512
 Alpha virt. eigenvalues --    0.60417   0.62114   0.62648   0.64204   0.64662
 Alpha virt. eigenvalues --    0.65866   0.68078   0.69827   0.71594   0.75866
 Alpha virt. eigenvalues --    0.77531   0.78228   0.79562   0.80186   0.84990
 Alpha virt. eigenvalues --    0.87742   0.90102   0.91528   0.94071   0.95492
 Alpha virt. eigenvalues --    0.96633   0.98104   1.00252   1.04256   1.06049
 Alpha virt. eigenvalues --    1.07283   1.08432   1.10296   1.11644   1.13223
 Alpha virt. eigenvalues --    1.14402   1.17139   1.21068   1.21504   1.25321
 Alpha virt. eigenvalues --    1.27763   1.29919   1.33411   1.36203   1.36820
 Alpha virt. eigenvalues --    1.39111   1.40516   1.45327   1.46240   1.47087
 Alpha virt. eigenvalues --    1.48017   1.49265   1.50158   1.52109   1.54470
 Alpha virt. eigenvalues --    1.57275   1.57927   1.58920   1.60471   1.61139
 Alpha virt. eigenvalues --    1.61841   1.62014   1.62696   1.63397   1.64796
 Alpha virt. eigenvalues --    1.66013   1.66556   1.67471   1.68726   1.70774
 Alpha virt. eigenvalues --    1.71255   1.72170   1.72930   1.74310   1.75850
 Alpha virt. eigenvalues --    1.78428   1.80384   1.81712   1.84911   1.86769
 Alpha virt. eigenvalues --    1.88448   1.89921   1.91309   1.93855   1.96036
 Alpha virt. eigenvalues --    1.96651   1.98163   1.99618   2.04053   2.05593
 Alpha virt. eigenvalues --    2.06672   2.07956   2.08275   2.11482   2.12411
 Alpha virt. eigenvalues --    2.16183   2.21187   2.25937   2.26273   2.29460
 Alpha virt. eigenvalues --    2.31945   2.33183   2.36029   2.37710   2.40763
 Alpha virt. eigenvalues --    2.42075   2.44915   2.45697   2.47250   2.49815
 Alpha virt. eigenvalues --    2.52790   2.54255   2.55792   2.61609   2.61837
 Alpha virt. eigenvalues --    2.63113   2.65235   2.66181   2.67729   2.69417
 Alpha virt. eigenvalues --    2.70725   2.73485   2.74842   2.75707   2.79047
 Alpha virt. eigenvalues --    2.80567   2.83819   2.84785   2.85977   2.89985
 Alpha virt. eigenvalues --    2.91499   2.94916   2.97744   2.99990   3.00778
 Alpha virt. eigenvalues --    3.01773   3.06716   3.08345   3.11487   3.13629
 Alpha virt. eigenvalues --    3.14588   3.16758   3.17220   3.20467   3.22271
 Alpha virt. eigenvalues --    3.23704   3.24598   3.26088   3.27402   3.28841
 Alpha virt. eigenvalues --    3.31020   3.33633   3.35492   3.37544   3.38220
 Alpha virt. eigenvalues --    3.41190   3.42809   3.44823   3.46567   3.48923
 Alpha virt. eigenvalues --    3.50217   3.53992   3.56685   3.57323   3.59575
 Alpha virt. eigenvalues --    3.61619   3.63644   3.68485   3.69080   3.74575
 Alpha virt. eigenvalues --    3.78605   3.83568   3.88585   3.91142   3.91409
 Alpha virt. eigenvalues --    3.94346   3.95276   4.00252   4.00602   4.03866
 Alpha virt. eigenvalues --    4.07818   4.12753   4.14730   4.18702   4.20851
 Alpha virt. eigenvalues --    4.25069   4.27102   4.29376   4.32831   4.38616
 Alpha virt. eigenvalues --    4.41819   4.44386   4.46004   4.49482   4.54045
 Alpha virt. eigenvalues --    4.56633   4.59588   4.62352   4.67163   4.73129
 Alpha virt. eigenvalues --    4.76948   4.82793   4.92173   4.95479   4.97895
 Alpha virt. eigenvalues --    5.03900   5.06100   5.07913   5.11963   5.16730
 Alpha virt. eigenvalues --    5.18031   5.32617   5.33181   5.37000   5.48769
 Alpha virt. eigenvalues --    5.55506   5.67952   5.81534   5.86991   6.18079
 Alpha virt. eigenvalues --    6.42545   6.50698   6.62359   6.67520   6.92846
 Alpha virt. eigenvalues --    7.13080   7.17320   7.70420  22.36932  22.45826
 Alpha virt. eigenvalues --   22.52999  22.72419  23.29122  32.13634  44.01643
          Condensed to atoms (all electrons):
               1          2          3          4          5          6
     1  C    6.015118   0.307140  -0.152618   0.135978  -0.007407  -0.000121
     2  C    0.307140   4.577870   0.632566   0.027693   0.002184  -0.000104
     3  O   -0.152618   0.632566   8.133353   0.014551   0.000023   0.000002
     4  C    0.135978   0.027693   0.014551   5.097734   0.003176   0.001294
     5  C   -0.007407   0.002184   0.000023   0.003176   4.866822   0.410431
     6  H   -0.000121  -0.000104   0.000002   0.001294   0.410431   0.492742
     7  H   -0.003215   0.001412  -0.000036   0.005975   0.412735  -0.019010
     8  H    0.001378  -0.000043  -0.000000  -0.003858   0.413765  -0.018105
     9  N   -0.006473  -0.008727   0.000345  -0.025302   0.245555  -0.021606
    10  H    0.002740   0.001820  -0.000125  -0.004983  -0.017455  -0.004998
    11  H   -0.000546   0.000486  -0.000007   0.003622  -0.022094  -0.004363
    12  Br  -0.033017   0.002943  -0.000330   0.258313   0.001207  -0.000475
    13  H   -0.081212   0.006919   0.000085   0.488485  -0.000530   0.000473
    14  H    0.381637  -0.025010   0.008735  -0.018029  -0.000181   0.000012
    15  C   -0.157295   0.275421  -0.112513   0.031153  -0.000772   0.000048
    16  H    0.002136  -0.018874   0.001951  -0.006407  -0.001223   0.000073
    17  H    0.012833  -0.029533   0.011096  -0.001535   0.000123  -0.000004
    18  H    0.019700  -0.044736   0.007458  -0.009106  -0.000137   0.000000
               7          8          9         10         11         12
     1  C   -0.003215   0.001378  -0.006473   0.002740  -0.000546  -0.033017
     2  C    0.001412  -0.000043  -0.008727   0.001820   0.000486   0.002943
     3  O   -0.000036  -0.000000   0.000345  -0.000125  -0.000007  -0.000330
     4  C    0.005975  -0.003858  -0.025302  -0.004983   0.003622   0.258313
     5  C    0.412735   0.413765   0.245555  -0.017455  -0.022094   0.001207
     6  H   -0.019010  -0.018105  -0.021606  -0.004998  -0.004363  -0.000475
     7  H    0.503333  -0.024045  -0.037529  -0.004831   0.005817   0.000539
     8  H   -0.024045   0.495959  -0.033766   0.005443  -0.005059   0.002914
     9  N   -0.037529  -0.033766   6.572004   0.342987   0.341155  -0.058652
    10  H   -0.004831   0.005443   0.342987   0.404480  -0.017650   0.004047
    11  H    0.005817  -0.005059   0.341155  -0.017650   0.410072   0.001726
    12  Br   0.000539   0.002914  -0.058652   0.004047   0.001726  34.973449
    13  H   -0.003223  -0.000102  -0.047352   0.001672   0.000883  -0.028412
    14  H   -0.000149   0.000015  -0.000183   0.000640  -0.000109  -0.005557
    15  C    0.001807  -0.000233   0.002031  -0.000875   0.000053  -0.001469
    16  H   -0.000558   0.000045   0.001909  -0.000031  -0.000044  -0.000011
    17  H    0.000306  -0.000009  -0.000278   0.000010   0.000008   0.000101
    18  H   -0.000871   0.000153  -0.000751   0.000093  -0.000036   0.000684
              13         14         15         16         17         18
     1  C   -0.081212   0.381637  -0.157295   0.002136   0.012833   0.019700
     2  C    0.006919  -0.025010   0.275421  -0.018874  -0.029533  -0.044736
     3  O    0.000085   0.008735  -0.112513   0.001951   0.011096   0.007458
     4  C    0.488485  -0.018029   0.031153  -0.006407  -0.001535  -0.009106
     5  C   -0.000530  -0.000181  -0.000772  -0.001223   0.000123  -0.000137
     6  H    0.000473   0.000012   0.000048   0.000073  -0.000004   0.000000
     7  H   -0.003223  -0.000149   0.001807  -0.000558   0.000306  -0.000871
     8  H   -0.000102   0.000015  -0.000233   0.000045  -0.000009   0.000153
     9  N   -0.047352  -0.000183   0.002031   0.001909  -0.000278  -0.000751
    10  H    0.001672   0.000640  -0.000875  -0.000031   0.000010   0.000093
    11  H    0.000883  -0.000109   0.000053  -0.000044   0.000008  -0.000036
    12  Br  -0.028412  -0.005557  -0.001469  -0.000011   0.000101   0.000684
    13  H    0.469178   0.003415  -0.000305  -0.001305   0.000107   0.001810
    14  H    0.003415   0.519227   0.012564  -0.000494  -0.000382  -0.000682
    15  C   -0.000305   0.012564   5.196533   0.389695   0.378162   0.381545
    16  H   -0.001305  -0.000494   0.389695   0.524776  -0.014591  -0.023560
    17  H    0.000107  -0.000382   0.378162  -0.014591   0.526922  -0.013401
    18  H    0.001810  -0.000682   0.381545  -0.023560  -0.013401   0.561643
 Mulliken charges:
               1
     1  C   -0.436758
     2  C    0.290573
     3  O   -0.544535
     4  C    0.001246
     5  C   -0.306222
     6  H    0.163711
     7  H    0.161543
     8  H    0.165546
     9  N   -0.265369
    10  H    0.287015
    11  H    0.286087
    12  Br  -0.117999
    13  H    0.189412
    14  H    0.124528
    15  C   -0.395550
    16  H    0.146512
    17  H    0.130065
    18  H    0.120194
 Sum of Mulliken charges =  -0.00000
 Mulliken charges with hydrogens summed into heavy atoms:
               1
     1  C   -0.312230
     2  C    0.290573
     3  O   -0.544535
     4  C    0.190658
     5  C    0.184578
     9  N    0.307734
    12  Br  -0.117999
    15  C    0.001222
 APT charges:
               1
     1  C   -0.486225
     2  C   -0.365946
     3  O    0.009030
     4  C   -0.587044
     5  C   -1.182820
     6  H    0.698915
     7  H    0.278040
     8  H    0.346937
     9  N   -0.596407
    10  H    0.490081
    11  H    0.573611
    12  Br   0.056263
    13  H    0.371950
    14  H    0.330214
    15  C   -1.063770
    16  H    0.378577
    17  H    0.653149
    18  H    0.095445
 Sum of APT charges =  -0.00000
 APT charges with hydrogens summed into heavy atoms:
               1
     1  C   -0.156011
     2  C   -0.365946
     3  O    0.009030
     4  C   -0.215094
     5  C    0.141072
     9  N    0.467285
    12  Br   0.056263
    15  C    0.063401
 Electronic spatial extent (au):  <R**2>=           1895.1522
 Charge=             -0.0000 electrons
 Dipole moment (field-independent basis, Debye):
    X=              6.2005    Y=              9.8498    Z=              0.4398  Tot=             11.6473
 Quadrupole moment (field-independent basis, Debye-Ang):
   XX=            -83.5420   YY=            -56.0108   ZZ=            -59.2601
   XY=             -9.3783   XZ=             -8.6484   YZ=             -5.4747
 Traceless Quadrupole moment (field-independent basis, Debye-Ang):
   XX=            -17.2711   YY=             10.2602   ZZ=              7.0109
   XY=             -9.3783   XZ=             -8.6484   YZ=             -5.4747
 Octapole moment (field-independent basis, Debye-Ang**2):
  XXX=            135.0375  YYY=             28.9958  ZZZ=             -2.6064  XYY=             38.7111
  XXY=             36.8451  XXZ=             21.5026  XZZ=             23.3274  YZZ=              4.9783
  YYZ=             -3.6339  XYZ=              7.5606
 Hexadecapole moment (field-independent basis, Debye-Ang**3):
 XXXX=          -1624.7100 YYYY=           -615.5263 ZZZZ=           -190.1023 XXXY=           -162.4397
 XXXZ=            -73.6376 YYYX=            -49.2874 YYYZ=            -26.6200 ZZZX=              3.4835
 ZZZY=            -17.2191 XXYY=           -385.1604 XXZZ=           -275.2327 YYZZ=           -139.1101
 XXYZ=            -38.3745 YYXZ=            -10.6965 ZZXY=            -12.4090
 N-N= 5.908924595436D+02 E-N=-8.095085155105D+03  KE= 2.895508482568D+03
  Exact polarizability:   0.000   0.000   0.000   0.000   0.000   0.000
 Approx polarizability: 133.870  11.249 108.592   3.667   2.803  89.421
   1 Symmetry operations used in ECPInt.
 ECPInt:  NShTT=    8911 NPrTT=   28930 LenC2=    8599 LenP2D=   21474.
 LDataN:  DoStor=T MaxTD1= 8 Len=  415
 D2PCM: PCM CHGder 2nd derivatives, FixD1E=F FixD2E=F DoIter=F DoCFld=F I1PDM=0
 Calling FoFJK, ICntrl=    100147 FMM=F ISym2X=0 I1Cent= 0 IOpClX= 0 NMat=1 NMatS=1 NMatT=0.
 ***** Axes restored to original set *****
 -------------------------------------------------------------------
 Center     Atomic                   Forces (Hartrees/Bohr)
 Number     Number              X              Y              Z
 -------------------------------------------------------------------
      1        6          -0.000003604    0.000002359    0.000003071
      2        6          -0.000001151   -0.000000123   -0.000002952
      3        8          -0.000004226    0.000006371   -0.000001134
      4        6           0.000955609    0.004498249   -0.002615792
      5        6           0.000003947    0.000002081   -0.000003693
      6        1           0.000006354   -0.000005220    0.000003971
      7        1           0.000003586   -0.000000711    0.000000542
      8        1           0.000004132   -0.000004114    0.000000761
      9        7          -0.000957183   -0.004500174    0.002624715
     10        1           0.000001829   -0.000000535   -0.000000334
     11        1           0.000005297   -0.000003927   -0.000000929
     12       35          -0.000004922   -0.000005089    0.000000711
     13        1           0.000000238   -0.000003382   -0.000004076
     14        1          -0.000003909   -0.000001416   -0.000002696
     15        6          -0.000007724    0.000004696   -0.000003209
     16        1           0.000002033    0.000001435    0.000001203
     17        1          -0.000001513    0.000006003   -0.000002059
     18        1           0.000001205    0.000003497    0.000001899
 -------------------------------------------------------------------
 Cartesian Forces:  Max     0.004500174 RMS     0.001018780
 FormGI is forming the generalized inverse of G from B-inverse, IUseBI=4.

 GradGradGradGradGradGradGradGradGradGradGradGradGradGradGradGradGradGrad
 Berny optimization.
 Internal  Forces:  Max     0.005292149 RMS     0.000588018
 Search for a saddle point.
 Step number   1 out of a maximum of   70
 All quantities printed in internal units (Hartrees-Bohrs-Radians)
 Swapping is turned off.
 Second derivative matrix not updated -- analytic derivatives used.
 ITU=  0
     Eigenvalues ---   -0.03525  -0.00109   0.00115   0.00205   0.00892
     Eigenvalues ---    0.00915   0.01372   0.02303   0.03506   0.03967
     Eigenvalues ---    0.04431   0.04691   0.04838   0.05263   0.05283
     Eigenvalues ---    0.05729   0.06025   0.08512   0.09573   0.11380
     Eigenvalues ---    0.11805   0.12117   0.12963   0.13321   0.13548
     Eigenvalues ---    0.15035   0.15791   0.17780   0.18289   0.18839
     Eigenvalues ---    0.22288   0.22641   0.28193   0.33331   0.34033
     Eigenvalues ---    0.34288   0.34588   0.34672   0.34881   0.35085
     Eigenvalues ---    0.36187   0.36219   0.36428   0.42437   0.45032
     Eigenvalues ---    0.45172   0.49956   0.72247
 Eigenvectors required to have negative eigenvalues:
                          R6        D6        A11       D9        R2
   1                   -0.87916  -0.20336   0.19176  -0.18657   0.13016
                          D5        D8        R7        A9        D10
   1                   -0.12663  -0.10983   0.10185  -0.09521   0.08825
 RFO step:  Lambda0=6.037150235D-04 Lambda=-1.14080793D-03.
 Linear search not attempted -- option 19 set.
 Maximum step size (   0.010) exceeded in Quadratic search.
    -- Step size scaled by   0.099
 Iteration  1 RMS(Cart)=  0.00546409 RMS(Int)=  0.00001047
 Iteration  2 RMS(Cart)=  0.00001477 RMS(Int)=  0.00000058
 Iteration  3 RMS(Cart)=  0.00000000 RMS(Int)=  0.00000058
 Variable       Old X    -DE/DX   Delta X   Delta X   Delta X     New X
                                 (Linear)    (Quad)   (Total)
    R1        2.68588   0.00000   0.00000   0.00085   0.00085   2.68673
    R2        2.62558   0.00000   0.00000  -0.00131  -0.00131   2.62426
    R3        2.04736   0.00000   0.00000  -0.00005  -0.00005   2.04731
    R4        2.34513  -0.00000   0.00000  -0.00047  -0.00047   2.34465
    R5        2.87064   0.00000   0.00000  -0.00024  -0.00024   2.87040
    R6        3.54287  -0.00529   0.00000   0.00860   0.00860   3.55147
    R7        3.67051  -0.00000   0.00000  -0.00190  -0.00190   3.66861
    R8        2.04354  -0.00000   0.00000  -0.00007  -0.00007   2.04347
    R9        2.05821  -0.00000   0.00000   0.00011   0.00011   2.05832
   R10        2.05705   0.00000   0.00000   0.00005   0.00005   2.05710
   R11        2.05688  -0.00000   0.00000   0.00010   0.00010   2.05697
   R12        2.76525  -0.00000   0.00000  -0.00031  -0.00031   2.76495
   R13        1.91670   0.00000   0.00000  -0.00012  -0.00012   1.91658
   R14        1.91681   0.00000   0.00000  -0.00009  -0.00009   1.91672
   R15        2.06503  -0.00000   0.00000   0.00002   0.00002   2.06505
   R16        2.05811  -0.00000   0.00000  -0.00002  -0.00002   2.05809
   R17        2.05871   0.00000   0.00000  -0.00001  -0.00001   2.05870
    A1        2.16921   0.00000   0.00000  -0.00011  -0.00011   2.16911
    A2        2.03476  -0.00000   0.00000  -0.00031  -0.00031   2.03445
    A3        2.07657  -0.00000   0.00000   0.00036   0.00036   2.07693
    A4        2.12421   0.00000   0.00000  -0.00033  -0.00033   2.12388
    A5        2.10828   0.00000   0.00000  -0.00017  -0.00017   2.10812
    A6        2.05062  -0.00000   0.00000   0.00050   0.00050   2.05112
    A7        1.97328   0.00000   0.00000  -0.00003  -0.00003   1.97326
    A8        2.03952  -0.00000   0.00000   0.00027   0.00027   2.03978
    A9        2.09235   0.00000   0.00000   0.00149   0.00149   2.09384
   A10        1.73704   0.00000   0.00000  -0.00065  -0.00065   1.73638
   A11        1.65539  -0.00000   0.00000  -0.00323  -0.00323   1.65215
   A12        1.89676  -0.00000   0.00000   0.00102   0.00102   1.89778
   A13        1.90549   0.00000   0.00000  -0.00028  -0.00028   1.90520
   A14        1.90768  -0.00000   0.00000  -0.00031  -0.00031   1.90736
   A15        1.94040   0.00000   0.00000   0.00076   0.00076   1.94116
   A16        1.90799   0.00000   0.00000  -0.00041  -0.00041   1.90758
   A17        1.90083  -0.00000   0.00000   0.00020   0.00020   1.90103
   A18        1.90122  -0.00000   0.00000   0.00002   0.00002   1.90125
   A19        1.95364   0.00000   0.00000   0.00014   0.00014   1.95378
   A20        1.78390  -0.00000   0.00000  -0.00041  -0.00041   1.78350
   A21        1.92999  -0.00000   0.00000   0.00023   0.00023   1.93022
   A22        1.95047  -0.00000   0.00000   0.00022   0.00022   1.95069
   A23        1.94828  -0.00000   0.00000  -0.00011  -0.00011   1.94817
   A24        1.89035  -0.00000   0.00000  -0.00009  -0.00009   1.89026
   A25        1.90123   0.00000   0.00000  -0.00024  -0.00024   1.90099
   A26        1.89654   0.00000   0.00000   0.00022   0.00022   1.89677
   A27        1.99638   0.00000   0.00000  -0.00023  -0.00023   1.99615
   A28        1.88105  -0.00000   0.00000   0.00011   0.00011   1.88115
   A29        1.88447  -0.00000   0.00000  -0.00003  -0.00003   1.88444
   A30        1.90102   0.00000   0.00000   0.00018   0.00018   1.90121
    D1        3.09323  -0.00000   0.00000   0.00045   0.00045   3.09368
    D2       -0.03491  -0.00000   0.00000   0.00067   0.00067  -0.03424
    D3        0.03080  -0.00000   0.00000   0.00117   0.00117   0.03197
    D4       -3.09734   0.00000   0.00000   0.00140   0.00140  -3.09595
    D5       -1.60133   0.00000   0.00000   0.00612   0.00612  -1.59521
    D6        2.68075  -0.00000   0.00000   0.00681   0.00681   2.68756
    D7        0.32762   0.00000   0.00000   0.00278   0.00278   0.33040
    D8        1.45934   0.00000   0.00000   0.00535   0.00535   1.46469
    D9       -0.54177  -0.00000   0.00000   0.00604   0.00604  -0.53573
   D10       -2.89491  -0.00000   0.00000   0.00201   0.00201  -2.89289
   D11        1.64250  -0.00000   0.00000  -0.00116  -0.00116   1.64134
   D12       -2.59580  -0.00000   0.00000  -0.00104  -0.00104  -2.59684
   D13       -0.46771   0.00000   0.00000  -0.00079  -0.00079  -0.46851
   D14       -1.48620   0.00000   0.00000  -0.00094  -0.00094  -1.48713
   D15        0.55870  -0.00000   0.00000  -0.00082  -0.00082   0.55788
   D16        2.68678   0.00000   0.00000  -0.00057  -0.00057   2.68621
   D17        2.03734   0.00000   0.00000   0.00399   0.00399   2.04133
   D18       -0.05236   0.00000   0.00000   0.00390   0.00390  -0.04846
   D19       -2.06165   0.00000   0.00000   0.00412   0.00412  -2.05753
   D20       -2.06943   0.00000   0.00000   0.00388   0.00388  -2.06555
   D21        2.12405  -0.00000   0.00000   0.00379   0.00379   2.12785
   D22        0.11477   0.00000   0.00000   0.00401   0.00401   0.11878
   D23       -0.15162  -0.00000   0.00000   0.00415   0.00415  -0.14747
   D24       -2.24132  -0.00000   0.00000   0.00407   0.00407  -2.23726
   D25        2.03258   0.00000   0.00000   0.00428   0.00428   2.03686
   D26       -3.05443  -0.00000   0.00000   0.00030   0.00030  -3.05413
   D27       -1.06536  -0.00000   0.00000   0.00001   0.00001  -1.06535
   D28        1.05470  -0.00000   0.00000  -0.00003  -0.00003   1.05467
   D29       -0.95417   0.00000   0.00000   0.00056   0.00056  -0.95361
   D30        1.03490   0.00000   0.00000   0.00027   0.00027   1.03517
   D31       -3.12823  -0.00000   0.00000   0.00023   0.00023  -3.12800
   D32        1.12552  -0.00000   0.00000   0.00020   0.00020   1.12572
   D33        3.11459   0.00000   0.00000  -0.00009  -0.00009   3.11450
   D34       -1.04854  -0.00000   0.00000  -0.00013  -0.00013  -1.04867
         Item               Value     Threshold  Converged?
 Maximum Force            0.005292     0.000450     NO 
 RMS     Force            0.000588     0.000300     NO 
 Maximum Displacement     0.016843     0.001800     NO 
 RMS     Displacement     0.005466     0.001200     NO 
 Predicted change in Energy= 4.302983D-05
 GradGradGradGradGradGradGradGradGradGradGradGradGradGradGradGradGradGrad

                          Input orientation:                          
 ---------------------------------------------------------------------
 Center     Atomic      Atomic             Coordinates (Angstroms)
 Number     Number       Type             X           Y           Z
 ---------------------------------------------------------------------
      1          6           0       -0.925017   -0.727875   -0.431973
      2          6           0       -2.300719   -0.638076   -0.084449
      3          8           0       -3.165498   -1.309966   -0.667672
      4          6           0        0.079361    0.037213    0.146260
      5          6           0        0.124160    2.814553    0.035402
      6          1           0        0.237212    3.731978   -0.540739
      7          1           0       -0.898446    2.746857    0.402393
      8          1           0        0.809235    2.834406    0.881047
      9          7           0        0.413655    1.636444   -0.782554
     10          1           0       -0.218923    1.561891   -1.571799
     11          1           0        1.364093    1.651506   -1.136414
     12         35           0        1.868781   -0.715637    0.141520
     13          1           0       -0.090913    0.522115    1.097688
     14          1           0       -0.674706   -1.389851   -1.252258
     15          6           0       -2.765796    0.305387    1.011358
     16          1           0       -3.070599    1.251905    0.558192
     17          1           0       -3.639352   -0.127523    1.496763
     18          1           0       -2.012269    0.522105    1.767706
 ---------------------------------------------------------------------
                    Distance matrix (angstroms):
                    1          2          3          4          5
     1  C    0.000000
     2  C    1.421757   0.000000
     3  O    2.326830   1.240736   0.000000
     4  C    1.388700   2.484758   3.606450   0.000000
     5  C    3.723976   4.220788   5.322387   2.779913   0.000000
     6  H    4.610086   5.074117   6.084056   3.761406   1.089215
     7  H    3.573602   3.696100   4.768896   2.892038   1.088571
     8  H    4.173906   4.760476   5.947507   2.982770   1.088503
     9  N    2.739517   3.609518   4.637333   1.879359   1.463147
    10  H    2.653450   3.374306   4.212756   2.316322   2.066388
    11  H    3.376050   4.447434   5.432055   2.429348   2.064768
    12  Br   2.852078   4.176339   5.133418   1.941347   3.939188
    13  H    2.144310   2.761654   3.990750   1.081359   2.535741
    14  H    1.083391   2.138425   2.559720   2.135645   4.469146
    15  C    2.557207   1.518952   2.363952   2.985839   3.949715
    16  H    3.082771   2.139563   2.841642   3.401090   3.594671
    17  H    3.383498   2.133737   2.511471   3.959775   4.995539
    18  H    2.753753   2.204473   3.258448   2.690562   3.580576
                    6          7          8          9         10
     6  H    0.000000
     7  H    1.774734   0.000000
     8  H    1.776041   1.775654   0.000000
     9  N    2.116806   2.087756   2.087861   0.000000
    10  H    2.445489   2.400693   2.948364   1.014209   0.000000
    11  H    2.439888   2.947338   2.403594   1.014286   1.644242
    12  Br   4.786311   4.440097   3.777875   2.916092   3.532861
    13  H    3.618747   2.466784   2.490761   2.243130   2.867696
    14  H    5.250808   4.460973   4.959578   3.250171   3.003769
    15  C    4.813376   3.133466   4.381069   3.885710   3.839019
    16  H    4.277853   2.641478   4.202577   3.753065   3.572815
    17  H    5.837372   4.119742   5.379782   4.973302   4.895868
    18  H    4.548887   2.837993   3.754169   3.691976   3.930590
                   11         12         13         14         15
    11  H    0.000000
    12  Br   2.737004   0.000000
    13  H    2.895476   2.507327   0.000000
    14  H    3.663328   2.977668   3.085235   0.000000
    15  C    4.845714   4.824771   2.685037   3.517165   0.000000
    16  H    4.764227   5.333133   3.114832   3.999613   1.092776
    17  H    5.927312   5.702814   3.629422   4.235530   1.089095
    18  H    4.594484   4.386233   2.034830   3.816390   1.089418
                   16         17         18
    16  H    0.000000
    17  H    1.762730   0.000000
    18  H    1.765105   1.772801   0.000000
 Stoichiometry    C5H10BrNO
 Framework group  C1[X(C5H10BrNO)]
 Deg. of freedom    48
 Full point group                 C1      NOp   1
 Largest Abelian subgroup         C1      NOp   1
 Largest concise Abelian subgroup C1      NOp   1
                         Standard orientation:                         
 ---------------------------------------------------------------------
 Center     Atomic      Atomic             Coordinates (Angstroms)
 Number     Number       Type             X           Y           Z
 ---------------------------------------------------------------------
      1          6           0       -0.925704   -0.727913   -0.430255
      2          6           0       -2.301584   -0.636936   -0.083742
      3          8           0       -3.166304   -1.309346   -0.666450
      4          6           0        0.078661    0.037623    0.147405
      5          6           0        0.124807    2.814764    0.032197
      6          1           0        0.238645    3.731228   -0.545318
      7          1           0       -0.898060    2.748117    0.398650
      8          1           0        0.809359    2.835636    0.878242
      9          7           0        0.414276    1.635235   -0.783718
     10          1           0       -0.217839    1.559729   -1.573243
     11          1           0        1.364944    1.649302   -1.137001
     12         35           0        1.867737   -0.716054    0.144981
     13          1           0       -0.091990    0.524103    1.097960
     14          1           0       -0.675181   -1.391297   -1.249338
     15          6           0       -2.766918    0.308468    1.010284
     16          1           0       -3.070999    1.254410    0.555434
     17          1           0       -3.640978   -0.123276    1.495819
     18          1           0       -2.013768    0.526031    1.766764
 ---------------------------------------------------------------------
 Rotational constants (GHZ):           1.7135351           0.7460866           0.5733209
 Standard basis: def2TZVP (5D, 7F)
 There are   367 symmetry adapted cartesian basis functions of A   symmetry.
 There are   325 symmetry adapted basis functions of A   symmetry.
   325 basis functions,   551 primitive gaussians,   367 cartesian basis functions
    45 alpha electrons       45 beta electrons
       nuclear repulsion energy       590.8592112610 Hartrees.
 NAtoms=   18 NActive=   18 NUniq=   18 SFac= 1.00D+00 NAtFMM=   60 NAOKFM=F Big=F
 Integral buffers will be    131072 words long.
 Raffenetti 2 integral format.
 Two-electron integral symmetry is turned on.
 Nuclear repulsion after empirical dispersion term =      590.8482385619 Hartrees.
 ------------------------------------------------------------------------------
 Polarizable Continuum Model (PCM)
 =================================
 Model                : PCM.
 Atomic radii         : UFF (Universal Force Field).
 Polarization charges : Total charges.
 Charge compensation  : None.
 Solution method      : Matrix inversion.
 Cavity type          : Scaled VdW (van der Waals Surface) (Alpha=1.100).
 Cavity algorithm     : GePol (No added spheres)
                        Default sphere list used, NSphG=   18.
                        Lebedev-Laikov grids with approx.  5.0 points / Ang**2.
                        Smoothing algorithm: York/Karplus (Gamma=1.0000).
                        Polarization charges: spherical gaussians, with
                                              point-specific exponents (IZeta= 3).
                        Self-potential: point-specific (ISelfS= 7).
                        Self-field    : sphere-specific E.n sum rule (ISelfD= 2).
 1st derivatives      : Analytical E(r).r(x)/FMM algorithm (CHGder, D1EAlg=3).
                        Cavity 1st derivative terms included.
 Solvent              : Water, Eps=  78.355300 Eps(inf)=   1.777849
 ------------------------------------------------------------------------------
 Spheres list:
 ISph  on   Nord     Re0    Alpha      Xe            Ye            Ze
    1   C      1    1.9255  1.100     -0.925704     -0.727913     -0.430255
    2   C      2    1.9255  1.100     -2.301584     -0.636936     -0.083742
    3   O      3    1.7500  1.100     -3.166304     -1.309346     -0.666450
    4   C      4    1.9255  1.100      0.078661      0.037623      0.147405
    5   C      5    1.9255  1.100      0.124807      2.814764      0.032197
    6   H      6    1.4430  1.100      0.238645      3.731228     -0.545318
    7   H      7    1.4430  1.100     -0.898060      2.748117      0.398650
    8   H      8    1.4430  1.100      0.809359      2.835636      0.878242
    9   N      9    1.8300  1.100      0.414276      1.635235     -0.783718
   10   H     10    1.4430  1.100     -0.217839      1.559729     -1.573243
   11   H     11    1.4430  1.100      1.364944      1.649302     -1.137001
   12  Br     12    2.0945  1.100      1.867737     -0.716054      0.144981
   13   H     13    1.4430  1.100     -0.091990      0.524103      1.097960
   14   H     14    1.4430  1.100     -0.675181     -1.391297     -1.249338
   15   C     15    1.9255  1.100     -2.766918      0.308468      1.010284
   16   H     16    1.4430  1.100     -3.070999      1.254410      0.555434
   17   H     17    1.4430  1.100     -3.640978     -0.123276      1.495819
   18   H     18    1.4430  1.100     -2.013768      0.526031      1.766764
 ------------------------------------------------------------------------------
 One-electron integrals computed using PRISM.
   1 Symmetry operations used in ECPInt.
 ECPInt:  NShTT=    8911 NPrTT=   28930 LenC2=    8598 LenP2D=   21466.
 LDataN:  DoStor=T MaxTD1= 6 Len=  172
 NBasis=   325 RedAO= T EigKep=  9.82D-05  NBF=   325
 NBsUse=   325 1.00D-06 EigRej= -1.00D+00 NBFU=   325
 Initial guess from the checkpoint file:  "/beegfs/scratch/user/q/tla25/Gau-15075.chk"
 B after Tr=    -0.000000    0.000000    0.000000
         Rot=    1.000000    0.000605   -0.000055   -0.000032 Ang=   0.07 deg.
 Requested convergence on RMS density matrix=1.00D-08 within 128 cycles.
 Requested convergence on MAX density matrix=1.00D-06.
 Requested convergence on             energy=1.00D-06.
 No special actions if energy rises.
 Inv3:  Mode=1 IEnd=     7263408.
 Iteration    1 A*A^-1 deviation from unit magnitude is 4.22D-15 for   1552.
 Iteration    1 A*A^-1 deviation from orthogonality  is 1.68D-15 for    361    128.
 Iteration    1 A^-1*A deviation from unit magnitude is 4.22D-15 for   1552.
 Iteration    1 A^-1*A deviation from orthogonality  is 7.21D-15 for   1003    982.
 Error on total polarization charges =  0.01414
 SCF Done:  E(RwB97XD) =  -2900.71953192     A.U. after   10 cycles
            NFock= 10  Conv=0.56D-08     -V/T= 2.0018
   1 Symmetry operations used in ECPInt.
 ECPInt:  NShTT=    8911 NPrTT=   28930 LenC2=    8598 LenP2D=   21466.
 LDataN:  DoStor=T MaxTD1= 7 Len=  274
 D1PCM: PCM CHGder 1st derivatives, ID1Alg=3 FixD1E=F DoIter=F DoCFld=F I1PDM=0.
 Calling FoFJK, ICntrl=      2127 FMM=F ISym2X=0 I1Cent= 0 IOpClX= 0 NMat=1 NMatS=1 NMatT=0.
 ***** Axes restored to original set *****
 -------------------------------------------------------------------
 Center     Atomic                   Forces (Hartrees/Bohr)
 Number     Number              X              Y              Z
 -------------------------------------------------------------------
      1        6           0.000002723   -0.000003044   -0.000005893
      2        6          -0.000000748    0.000004072   -0.000005535
      3        8          -0.000004832    0.000002017    0.000000789
      4        6           0.000854203    0.004071690   -0.002359154
      5        6           0.000016645    0.000004617    0.000001084
      6        1           0.000007089   -0.000005810    0.000003357
      7        1           0.000003390   -0.000001758    0.000002820
      8        1           0.000004902   -0.000004160    0.000000659
      9        7          -0.000847525   -0.004068546    0.002376258
     10        1          -0.000010129    0.000007871    0.000006424
     11        1          -0.000001381   -0.000012991   -0.000016151
     12       35          -0.000002277   -0.000000496    0.000004564
     13        1          -0.000013407   -0.000006706   -0.000006829
     14        1          -0.000003194   -0.000005042    0.000000946
     15        6          -0.000007273    0.000006434   -0.000004298
     16        1           0.000005768    0.000003555    0.000001348
     17        1          -0.000003777    0.000007822   -0.000003655
     18        1          -0.000000176    0.000000475    0.000003266
 -------------------------------------------------------------------
 Cartesian Forces:  Max     0.004071690 RMS     0.000920886

 GradGradGradGradGradGradGradGradGradGradGradGradGradGradGradGradGradGrad
 Berny optimization.
 FormGI is forming the generalized inverse of G from B-inverse, IUseBI=4.
 Internal  Forces:  Max     0.004781215 RMS     0.000531264
 Search for a saddle point.
 Step number   2 out of a maximum of   70
 All quantities printed in internal units (Hartrees-Bohrs-Radians)
 Swapping is turned off.
 Update second derivatives using D2CorX and points    1    2
 ITU=  0  0
     Eigenvalues ---   -0.03520  -0.00105   0.00115   0.00205   0.00892
     Eigenvalues ---    0.00912   0.01372   0.02303   0.03506   0.03967
     Eigenvalues ---    0.04430   0.04691   0.04838   0.05263   0.05283
     Eigenvalues ---    0.05729   0.06025   0.08512   0.09571   0.11379
     Eigenvalues ---    0.11805   0.12117   0.12963   0.13321   0.13548
     Eigenvalues ---    0.15035   0.15791   0.17780   0.18289   0.18839
     Eigenvalues ---    0.22287   0.22641   0.28193   0.33331   0.34033
     Eigenvalues ---    0.34288   0.34588   0.34672   0.34881   0.35085
     Eigenvalues ---    0.36187   0.36219   0.36428   0.42437   0.45032
     Eigenvalues ---    0.45172   0.49956   0.72247
 Eigenvectors required to have negative eigenvalues:
                          R6        D6        A11       D9        R2
   1                   -0.87877  -0.20381   0.19223  -0.18705   0.13019
                          D5        D8        R7        A9        D10
   1                   -0.12674  -0.10998   0.10172  -0.09513   0.08874
 RFO step:  Lambda0=4.938105790D-04 Lambda=-1.10984376D-03.
 Linear search not attempted -- option 19 set.
 Maximum step size (   0.010) exceeded in Quadratic search.
    -- Step size scaled by   0.110
 Iteration  1 RMS(Cart)=  0.00624235 RMS(Int)=  0.00001415
 Iteration  2 RMS(Cart)=  0.00001978 RMS(Int)=  0.00000057
 Iteration  3 RMS(Cart)=  0.00000000 RMS(Int)=  0.00000057
 Variable       Old X    -DE/DX   Delta X   Delta X   Delta X     New X
                                 (Linear)    (Quad)   (Total)
    R1        2.68673  -0.00000   0.00000   0.00084   0.00084   2.68757
    R2        2.62426   0.00000   0.00000  -0.00129  -0.00129   2.62297
    R3        2.04731   0.00000   0.00000  -0.00005  -0.00005   2.04726
    R4        2.34465   0.00000   0.00000  -0.00047  -0.00047   2.34418
    R5        2.87040   0.00000   0.00000  -0.00024  -0.00024   2.87016
    R6        3.55147  -0.00478   0.00000   0.00850   0.00850   3.55998
    R7        3.66861  -0.00000   0.00000  -0.00193  -0.00193   3.66668
    R8        2.04347  -0.00001   0.00000  -0.00007  -0.00007   2.04340
    R9        2.05832  -0.00000   0.00000   0.00010   0.00010   2.05842
   R10        2.05710   0.00000   0.00000   0.00006   0.00006   2.05716
   R11        2.05697  -0.00000   0.00000   0.00010   0.00010   2.05707
   R12        2.76495  -0.00000   0.00000  -0.00029  -0.00029   2.76466
   R13        1.91658   0.00000   0.00000  -0.00011  -0.00011   1.91646
   R14        1.91672   0.00000   0.00000  -0.00009  -0.00009   1.91664
   R15        2.06505  -0.00000   0.00000   0.00002   0.00002   2.06507
   R16        2.05809  -0.00000   0.00000  -0.00002  -0.00002   2.05807
   R17        2.05870   0.00000   0.00000  -0.00001  -0.00001   2.05870
    A1        2.16911   0.00000   0.00000  -0.00014  -0.00014   2.16897
    A2        2.03445  -0.00000   0.00000  -0.00029  -0.00029   2.03417
    A3        2.07693  -0.00000   0.00000   0.00037   0.00037   2.07729
    A4        2.12388  -0.00000   0.00000  -0.00031  -0.00031   2.12356
    A5        2.10812   0.00000   0.00000  -0.00021  -0.00021   2.10791
    A6        2.05112  -0.00000   0.00000   0.00052   0.00052   2.05164
    A7        1.97326   0.00000   0.00000   0.00001   0.00001   1.97327
    A8        2.03978  -0.00000   0.00000   0.00023   0.00023   2.04001
    A9        2.09384   0.00000   0.00000   0.00151   0.00151   2.09535
   A10        1.73638   0.00000   0.00000  -0.00061  -0.00061   1.73578
   A11        1.65215  -0.00000   0.00000  -0.00329  -0.00329   1.64886
   A12        1.89778   0.00000   0.00000   0.00101   0.00100   1.89878
   A13        1.90520   0.00000   0.00000  -0.00026  -0.00026   1.90494
   A14        1.90736   0.00000   0.00000  -0.00031  -0.00031   1.90705
   A15        1.94116  -0.00000   0.00000   0.00075   0.00075   1.94191
   A16        1.90758   0.00000   0.00000  -0.00041  -0.00041   1.90717
   A17        1.90103  -0.00000   0.00000   0.00021   0.00021   1.90124
   A18        1.90125  -0.00000   0.00000   0.00002   0.00002   1.90127
   A19        1.95378   0.00000   0.00000   0.00023   0.00023   1.95401
   A20        1.78350  -0.00000   0.00000  -0.00040  -0.00040   1.78309
   A21        1.93022  -0.00000   0.00000   0.00016   0.00016   1.93038
   A22        1.95069  -0.00000   0.00000   0.00023   0.00023   1.95091
   A23        1.94817  -0.00000   0.00000  -0.00012  -0.00012   1.94805
   A24        1.89026  -0.00000   0.00000  -0.00011  -0.00011   1.89014
   A25        1.90099  -0.00000   0.00000  -0.00025  -0.00025   1.90074
   A26        1.89677   0.00000   0.00000   0.00026   0.00026   1.89702
   A27        1.99615   0.00000   0.00000  -0.00026  -0.00026   1.99589
   A28        1.88115   0.00000   0.00000   0.00013   0.00013   1.88128
   A29        1.88444  -0.00000   0.00000  -0.00005  -0.00005   1.88439
   A30        1.90121  -0.00000   0.00000   0.00019   0.00019   1.90140
    D1        3.09368  -0.00000   0.00000   0.00050   0.00050   3.09417
    D2       -0.03424   0.00000   0.00000   0.00082   0.00082  -0.03342
    D3        0.03197   0.00000   0.00000   0.00132   0.00132   0.03329
    D4       -3.09595   0.00000   0.00000   0.00165   0.00165  -3.09430
    D5       -1.59521   0.00001   0.00000   0.00655   0.00655  -1.58866
    D6        2.68756   0.00001   0.00000   0.00718   0.00718   2.69475
    D7        0.33040   0.00001   0.00000   0.00318   0.00318   0.33357
    D8        1.46469   0.00001   0.00000   0.00568   0.00568   1.47036
    D9       -0.53573   0.00000   0.00000   0.00631   0.00631  -0.52942
   D10       -2.89289   0.00000   0.00000   0.00231   0.00231  -2.89059
   D11        1.64134  -0.00000   0.00000  -0.00164  -0.00164   1.63970
   D12       -2.59684  -0.00000   0.00000  -0.00148  -0.00148  -2.59832
   D13       -0.46851  -0.00000   0.00000  -0.00122  -0.00122  -0.46972
   D14       -1.48713  -0.00000   0.00000  -0.00132  -0.00132  -1.48845
   D15        0.55788  -0.00000   0.00000  -0.00116  -0.00116   0.55672
   D16        2.68621  -0.00000   0.00000  -0.00090  -0.00090   2.68531
   D17        2.04133   0.00001   0.00000   0.00521   0.00521   2.04654
   D18       -0.04846   0.00001   0.00000   0.00507   0.00507  -0.04339
   D19       -2.05753   0.00001   0.00000   0.00534   0.00534  -2.05219
   D20       -2.06555   0.00001   0.00000   0.00511   0.00511  -2.06045
   D21        2.12785   0.00001   0.00000   0.00496   0.00496   2.13281
   D22        0.11878   0.00001   0.00000   0.00523   0.00523   0.12401
   D23       -0.14747   0.00001   0.00000   0.00537   0.00537  -0.14211
   D24       -2.23726   0.00001   0.00000   0.00522   0.00522  -2.23204
   D25        2.03686   0.00001   0.00000   0.00549   0.00549   2.04235
   D26       -3.05413  -0.00000   0.00000   0.00040   0.00040  -3.05373
   D27       -1.06535   0.00000   0.00000   0.00018   0.00018  -1.06516
   D28        1.05467  -0.00000   0.00000   0.00011   0.00011   1.05478
   D29       -0.95361   0.00000   0.00000   0.00067   0.00067  -0.95294
   D30        1.03517   0.00000   0.00000   0.00046   0.00046   1.03562
   D31       -3.12800   0.00000   0.00000   0.00038   0.00038  -3.12761
   D32        1.12572   0.00000   0.00000   0.00031   0.00031   1.12603
   D33        3.11450   0.00000   0.00000   0.00009   0.00009   3.11459
   D34       -1.04867   0.00000   0.00000   0.00002   0.00002  -1.04865
         Item               Value     Threshold  Converged?
 Maximum Force            0.004781     0.000450     NO 
 RMS     Force            0.000531     0.000300     NO 
 Maximum Displacement     0.019928     0.001800     NO 
 RMS     Displacement     0.006244     0.001200     NO 
 Predicted change in Energy= 3.731733D-05
 GradGradGradGradGradGradGradGradGradGradGradGradGradGradGradGradGradGrad

                          Input orientation:                          
 ---------------------------------------------------------------------
 Center     Atomic      Atomic             Coordinates (Angstroms)
 Number     Number       Type             X           Y           Z
 ---------------------------------------------------------------------
      1          6           0       -0.923478   -0.732762   -0.429154
      2          6           0       -2.300082   -0.640768   -0.083962
      3          8           0       -3.163869   -1.314799   -0.665653
      4          6           0        0.079861    0.033660    0.147469
      5          6           0        0.125885    2.815090    0.038806
      6          1           0        0.235056    3.733849   -0.536062
      7          1           0       -0.894146    2.747113    0.412939
      8          1           0        0.816623    2.833475    0.879934
      9          7           0        0.409558    1.638290   -0.782791
     10          1           0       -0.228098    1.564978   -1.567977
     11          1           0        1.357600    1.653746   -1.142878
     12         35           0        1.870332   -0.713984    0.137725
     13          1           0       -0.089162    0.520499    1.098090
     14          1           0       -0.672720   -1.397510   -1.247022
     15          6           0       -2.766041    0.307996    1.006706
     16          1           0       -3.068087    1.253040    0.548615
     17          1           0       -3.641379   -0.121224    1.492146
     18          1           0       -2.013594    0.526741    1.763539
 ---------------------------------------------------------------------
                    Distance matrix (angstroms):
                    1          2          3          4          5
     1  C    0.000000
     2  C    1.422202   0.000000
     3  O    2.326812   1.240488   0.000000
     4  C    1.388015   2.484460   3.605731   0.000000
     5  C    3.729263   4.224138   5.326793   2.783932   0.000000
     6  H    4.615652   5.076277   6.087556   3.765992   1.089270
     7  H    3.580435   3.701527   4.776414   2.895166   1.088604
     8  H    4.178482   4.765848   5.953262   2.986350   1.088555
     9  N    2.742979   3.608963   4.637223   1.883858   1.462993
    10  H    2.657081   3.370568   4.210232   2.320027   2.066358
    11  H    3.377594   4.445755   5.429888   2.433575   2.064514
    12  Br   2.850803   4.176944   5.133184   1.940323   3.937924
    13  H    2.144579   2.762961   3.991607   1.081323   2.536430
    14  H    1.083364   2.138615   2.559425   2.135236   4.476284
    15  C    2.557325   1.518824   2.364003   2.985415   3.947859
    16  H    3.082011   2.139274   2.842079   3.399615   3.591847
    17  H    3.384134   2.133805   2.511719   3.959769   4.992637
    18  H    2.753653   2.204181   3.258125   2.690235   3.576117
                    6          7          8          9         10
     6  H    0.000000
     7  H    1.774640   0.000000
     8  H    1.775932   1.775463   0.000000
     9  N    2.117237   2.087798   2.087780   0.000000
    10  H    2.446091   2.401060   2.948355   1.014148   0.000000
    11  H    2.440320   2.947266   2.403370   1.014241   1.644089
    12  Br   4.786579   4.438161   3.774341   2.917945   3.536453
    13  H    3.619556   2.464801   2.493571   2.244079   2.866732
    14  H    5.259313   4.470168   4.964204   3.256213   3.012812
    15  C    4.808657   3.131429   4.385156   3.880259   3.827551
    16  H    4.271030   2.641342   4.206961   3.743672   3.555673
    17  H    5.831121   4.115743   5.383199   4.968030   4.884477
    18  H    4.542040   2.829724   3.756581   3.686598   3.919812
                   11         12         13         14         15
    11  H    0.000000
    12  Br   2.740252   0.000000
    13  H    2.898155   2.507163   0.000000
    14  H    3.666498   2.975205   3.085263   0.000000
    15  C    4.841092   4.826544   2.686855   3.517106   0.000000
    16  H    4.754832   5.331604   3.116494   3.998439   1.092788
    17  H    5.923147   5.706556   3.631162   4.236141   1.089082
    18  H    4.591552   4.389482   2.036246   3.816303   1.089415
                   16         17         18
    16  H    0.000000
    17  H    1.762814   0.000000
    18  H    1.765080   1.772907   0.000000
 Stoichiometry    C5H10BrNO
 Framework group  C1[X(C5H10BrNO)]
 Deg. of freedom    48
 Full point group                 C1      NOp   1
 Largest Abelian subgroup         C1      NOp   1
 Largest concise Abelian subgroup C1      NOp   1
                         Standard orientation:                         
 ---------------------------------------------------------------------
 Center     Atomic      Atomic             Coordinates (Angstroms)
 Number     Number       Type             X           Y           Z
 ---------------------------------------------------------------------
      1          6           0       -0.925198   -0.732675   -0.425623
      2          6           0       -2.302099   -0.637792   -0.082402
      3          8           0       -3.166049   -1.312605   -0.662942
      4          6           0        0.078429    0.034334    0.149718
      5          6           0        0.128162    2.815333    0.032062
      6          1           0        0.239208    3.732075   -0.545659
      7          1           0       -0.892407    2.749883    0.405178
      8          1           0        0.817906    2.835571    0.873962
      9          7           0        0.411313    1.635503   -0.785357
     10          1           0       -0.225489    1.560453   -1.571073
     11          1           0        1.359808    1.648570   -1.144343
     12         35           0        1.867947   -0.715634    0.144576
     13          1           0       -0.091116    0.524480    1.098544
     14          1           0       -0.674308   -1.400402   -1.241020
     15          6           0       -2.768154    0.315113    1.004608
     16          1           0       -3.068431    1.259047    0.543080
     17          1           0       -3.644629   -0.111401    1.490382
[...]
 .110487,-0.2403705,0.0602117,-0.0698004,-0.0027215,0.0160447,0.0209052
 ,0.0075781,0.1136679,-0.0389527,0.065965,-0.0012456,0.0529464,-0.10049
 41,-0.0426703,-0.0672237,-0.0022191,-0.0563936,0.0712512,0.073497,-0.0
 070632,-0.0436823,-0.0489316,0.0847983,-0.6589072,-0.2727604,-0.126856
 6,-0.8873862,-1.8190382,0.1341343,0.274978,0.6621673,-0.3560054,0.1563
 13,-0.0513283,-0.0313805,0.0393631,0.1653124,-0.0264397,-0.0761294,-0.
 0504626,0.2161561,0.2250234,-0.0024045,0.0162501,-0.0735268,0.1419315,
 -0.0648504,0.0160743,-0.0777346,0.2122903,-0.8325682,0.1163242,-0.2032
 852,0.0406422,-0.2259076,0.0379511,0.0383875,0.1062235,-0.15977,-0.061
 0763,0.0435615,0.036441,-0.0312561,-0.0759357,-0.0562753,0.0255399,0.0
 847861,0.0192513,0.0100263,0.0156545,0.0785571,-0.0021442,0.1036667,-0
 .1536069,0.0800294,-0.1773506,0.0816855,-0.0343366,0.122803,0.1361145,
 0.1868513,-0.0961441,-0.2466585,0.1862278,-0.2226369,-0.140782,0.05155
 76,-0.0684316,0.0532073,-0.0015394,-0.1016131,0.0272139,0.0562162,0.09
 31481,0.0456227,-0.1456702,-0.0230307,0.0420984,-0.0670519,0.0790442,-
 0.0058338,0.0046272,-0.0140349,0.0859965,0.0070382,0.0270619,-0.100944
 5,0.0564072,0.091606,0.0242385,-0.040274,-0.004525,-0.0767029\Polar=17
 2.1954277,29.0623065,146.4031924,7.9721443,4.9260277,102.3115573\Quadr
 upole=-8.8752204,4.0934257,4.7817948,-9.5300076,-6.4928919,-5.3793014\
 PG=C01 [X(C5H10Br1N1O1)]\NImag=1\\0.60456134,0.06992171,0.45839780,-0.
 05388897,0.30499976,0.38471778,-0.22439722,0.02650540,0.06575963,0.646
 64054,0.02400783,-0.07852434,-0.01503430,0.13982084,0.52024548,0.05583
 433,-0.02197473,-0.09470187,0.03864849,0.23626019,0.43318555,-0.075956
 98,-0.05805375,-0.03685574,-0.24785579,-0.19119663,-0.13733952,0.29755
 350,-0.05442764,-0.00779436,-0.01794924,-0.17075544,-0.30930323,-0.178
 99611,0.23679558,0.33231932,-0.03045153,-0.01238957,0.01273005,-0.1192
 2301,-0.17564725,-0.20823692,0.16146140,0.22787937,0.20406571,-0.15157
 987,-0.10163593,-0.06768848,-0.05851621,-0.03410677,-0.01330992,0.0138
 8406,0.01497112,0.01032490,0.39143913,-0.05197461,-0.18270103,-0.11052
 394,-0.07357017,-0.01488329,0.00025805,0.03090337,0.02615450,0.0127289
 8,0.02685361,0.25497507,-0.08040160,-0.13191785,-0.15839037,-0.0078827
 7,0.00016883,0.00197868,0.00456224,0.00136983,0.00534125,0.01222382,0.
 30652758,0.46494298,0.00322285,0.00175384,0.00070637,-0.00244332,-0.00
 004204,-0.00036183,0.00118871,0.00073773,0.00063746,-0.00061107,-0.009
 11144,0.00409253,0.59985157,-0.00165884,-0.00237887,0.00292868,0.00167
 996,-0.00013424,0.00019536,-0.00073392,-0.00034097,-0.00049536,-0.0036
 3988,-0.01119770,-0.00632313,-0.03607644,0.52200013,0.01090371,0.00891
 873,-0.00118852,-0.00997084,-0.00078829,-0.00097256,0.00474666,0.00296
 279,0.00264841,-0.00077960,-0.01863360,0.01476226,-0.02320182,-0.04002
 424,0.57149778,-0.00121280,-0.00135213,0.00021701,0.00129757,0.0001354
 0,0.00010328,-0.00061227,-0.00038126,-0.00033500,-0.00024017,0.0030834
 6,-0.00254717,-0.04958694,0.00964928,-0.00614064,0.04744524,-0.0039359
 0,-0.00278633,0.00012010,0.00371792,0.00034979,0.00028204,-0.00174458,
 -0.00108977,-0.00092122,0.00111042,0.00871616,-0.00483297,0.00801010,-
 0.21941145,0.12897125,-0.00424828,0.24462402,-0.00276654,-0.00192822,0
 .00017924,0.00239026,0.00014615,0.00026185,-0.00114164,-0.00071647,-0.
 00064598,0.00045749,0.00448459,-0.00271108,-0.00526524,0.13286223,-0.1
 4754097,0.00761197,-0.13653957,0.15237576,0.00018463,0.00017679,-0.000
 13481,-0.00017991,-0.00001394,-0.00006822,0.00009157,0.00006896,0.0000
 7545,0.00007852,0.00003052,-0.00036055,-0.14024440,0.02380574,0.128952
 48,0.00108555,-0.00018941,-0.00241437,0.14252353,-0.00013717,0.0002039
 8,0.00008792,-0.00011337,-0.00002858,-0.00004715,0.00007007,0.00005506
 ,0.00004503,0.00077498,0.00101799,-0.00121324,0.01804362,-0.05463046,-
 0.02682489,-0.01534034,0.00584066,0.02043849,-0.02102926,0.06342522,-0
 .00119646,-0.00055010,-0.00027333,0.00098875,0.00005690,0.00009070,-0.
 00047675,-0.00030317,-0.00025228,0.00070916,0.00314716,-0.00000600,0.1
 2307550,-0.03236970,-0.22747919,0.01090138,-0.00304084,-0.01373665,-0.
 13465113,0.04216131,0.24681884,-0.00024356,-0.00039017,0.00008251,0.00
 030459,0.00002916,0.00005247,-0.00013754,-0.00008775,-0.00008518,-0.00
 050860,0.00153387,-0.00062800,-0.29446177,0.04929408,-0.06903998,0.001
 33784,0.00025228,0.00093246,-0.01367510,0.00330916,-0.00523309,0.31748
 058,0.00025351,-0.00004101,-0.00007655,-0.00004312,0.00004357,0.000035
 33,0.00005176,0.00002718,0.00000068,-0.00048018,0.00102058,-0.00018508
 ,0.05877327,-0.06111584,0.01580411,0.02438825,-0.00323910,0.00518471,0
 .00312853,-0.00112469,0.00197335,-0.05095904,0.06629094,-0.00037945,-0
 .00026022,-0.00012990,0.00041308,0.00009147,0.00000811,-0.00020858,-0.
 00014190,-0.00010257,0.00034675,0.00165584,-0.00044680,-0.06513901,0.0
 1287280,-0.06891235,-0.01807480,0.00328030,-0.00431697,0.02488761,-0.0
 0480384,0.00967657,0.07897908,-0.01041739,0.07094118,-0.01248027,-0.01
 833638,0.00314169,0.01290083,0.00039689,0.00147818,-0.00611298,-0.0037
 6687,-0.00363959,-0.02547692,0.01592544,-0.00019462,-0.11880256,-0.040
 29696,-0.01605587,-0.00046536,-0.00370984,-0.00098184,0.01007419,0.017
 73324,0.00805918,-0.01235634,-0.03417428,-0.01994806,0.73298716,-0.044
 59832,-0.03715789,0.00109622,0.03623445,0.00169528,0.00306694,-0.01566
 309,-0.00933189,-0.00818926,0.01512562,0.06125556,-0.03042837,-0.02742
 206,-0.16841940,-0.03771731,-0.01672713,-0.03343466,-0.02402574,-0.004
 31244,-0.01054775,-0.00823758,-0.00192638,0.00287698,0.00003706,-0.047
 35847,0.31739997,0.01357935,0.00335411,0.01684339,-0.01001181,-0.00106
 191,-0.00029367,0.00437166,0.00304199,0.00168790,-0.00945470,-0.047219
 92,-0.03317084,-0.02613627,-0.07556585,-0.12369724,0.00709210,0.011486
 67,0.01353019,-0.01445230,-0.02822207,-0.01448755,-0.00415204,-0.00983
 793,-0.00580505,-0.02495782,0.17589094,0.54080691,-0.00132012,-0.00025
 727,-0.00076610,0.00142472,-0.00041730,-0.00016771,-0.00065781,-0.0002
 6801,-0.00013013,0.00368437,0.00428189,-0.00062427,-0.00794647,0.00232
 396,-0.00320353,0.00032665,0.00006319,0.00050722,0.00058417,0.00012103
 ,0.00001814,0.00149129,-0.00170226,-0.00068526,-0.39316569,0.04668465,
 -0.09487878,0.41352077,-0.00067010,0.00168813,-0.00249669,-0.00170344,
 -0.00128551,-0.00001909,0.00067462,0.00053509,0.00050156,0.01145242,0.
 00035541,0.00274542,-0.03350240,0.00308628,-0.01030468,-0.00022243,0.0
 0056113,0.00053356,0.00076486,0.00085035,-0.00002226,-0.00139031,-0.00
 496130,-0.00307671,0.07003315,-0.05315092,0.00728630,-0.05348959,0.057
 05710,-0.00036226,-0.00169393,0.00071739,0.00110982,0.00079708,0.00040
 892,-0.00059609,-0.00053409,-0.00052543,-0.00646693,0.00216427,-0.0028
 0280,-0.01573370,0.00493669,-0.00523671,0.00071661,-0.00001974,0.00078
 314,-0.00027385,0.00028158,-0.00014705,-0.00115284,-0.00282981,-0.0011
 6162,-0.11831833,0.00262492,-0.08480907,0.10897707,-0.00270752,0.08439
 415,0.00046771,-0.00009687,0.00029178,-0.00077856,0.00002826,-0.000028
 58,0.00036894,0.00021099,0.00015579,0.00053111,-0.00271644,-0.00098481
 ,0.01071317,-0.00419933,-0.01451036,0.00012280,0.00014155,0.00028254,-
 0.00033143,-0.00306338,-0.00224144,0.00036059,0.00033152,-0.00033132,-
 0.17705780,0.04980733,0.16155203,-0.01791165,0.00696469,0.03227023,0.1
 8318953,-0.00124060,-0.00114875,-0.00285629,0.00096642,0.00017938,-0.0
 0001455,-0.00063489,-0.00047957,-0.00035925,-0.00488896,0.00934531,0.0
 0986900,0.01771750,-0.00862711,-0.02570610,0.00070407,0.00020732,0.000
 20461,-0.00302511,-0.00399412,-0.00177547,-0.00026777,0.00128805,0.000
 56808,0.03467499,-0.05827448,-0.06330651,0.00349465,-0.00194876,-0.004
 50737,-0.04791674,0.06665143,-0.00074759,0.00046083,0.00073125,0.00053
 012,0.00010311,-0.00003905,-0.00025427,-0.00011942,-0.00009106,0.00381
 538,0.00049123,-0.00662661,0.00835092,0.00014985,-0.01183577,-0.000020
 12,0.00024100,0.00109813,-0.00174826,-0.00242810,-0.00038372,0.0000540
 1,0.00028255,0.00003934,0.17631126,-0.09111494,-0.29359868,-0.01015400
 ,0.00448700,0.01039101,-0.17536443,0.08610208,0.30023619,-0.04149823,0
 .00252376,-0.00238810,0.01032284,0.00508027,-0.00889835,-0.00642268,-0
 .00562281,-0.00073893,-0.10379904,0.01464986,0.00666038,-0.00106923,0.
 00044676,-0.00234995,0.00059324,0.00075263,0.00059945,-0.00002165,-0.0
 0003464,0.00014616,0.00042532,0.00037243,0.00017981,-0.01179719,0.0136
 1514,-0.00494816,0.00108660,0.00202516,-0.00085012,-0.00006485,-0.0000
 1958,-0.00039417,0.16825565,-0.01515870,0.00461264,-0.00141943,0.00175
 304,0.00219666,-0.00302130,-0.00153748,-0.00168559,0.00004405,0.021719
 67,-0.02682268,-0.00497636,0.00146792,-0.00144670,0.00185223,-0.000082
 51,-0.00028649,-0.00013687,0.00021583,0.00000594,-0.00015450,0.0007202
 7,-0.00097520,0.00030977,0.01584147,-0.01124176,0.00504883,-0.00067261
 ,-0.00296582,0.00121033,0.00015710,0.00031746,0.00001496,-0.03431625,0
 .03863356,-0.00980768,0.00233834,0.00493357,-0.00134274,-0.00221222,0.
 00050437,0.00002743,0.00062765,0.00007572,-0.00445521,-0.00931110,-0.0
 2686663,-0.00079698,0.00007580,-0.00106856,0.00026005,0.00033447,0.000
 34262,-0.00002864,0.00010931,0.00002837,0.00019618,-0.00004161,0.00011
 340,-0.01078480,0.00963300,-0.00289586,0.00042235,0.00238273,-0.000764
 96,-0.00032711,-0.00016270,0.00024620,0.01513129,-0.00381591,0.0205646
 1,0.01117591,-0.00894193,-0.01390593,0.00177977,-0.00013529,0.00007449
 ,-0.00044459,0.00013726,0.00002090,-0.07308004,0.04774578,0.07970696,-
 0.00009558,-0.00041386,0.00024258,-0.00001643,-0.00003696,-0.00015801,
 -0.00013747,-0.00041159,-0.00006103,-0.00005172,0.00001752,0.00002251,
 0.00160362,-0.00185015,0.00201623,-0.00001503,-0.00033386,0.00010554,0
 .00017316,0.00008862,-0.00022090,-0.01745138,0.01066526,0.01220008,0.0
 8229502,0.00306388,-0.00921395,-0.01745783,0.00523720,-0.00183932,0.00
 248448,-0.00209191,-0.00080412,-0.00103491,0.04558854,-0.10806650,-0.1
 2820464,-0.00002200,0.00260958,0.00228828,0.00033205,-0.00029831,-0.00
 078174,0.00039050,-0.00109549,-0.00101311,-0.00018258,-0.00007854,-0.0
 0012345,-0.00822186,-0.00599077,0.02099885,-0.00008815,0.00004401,0.00
 017068,0.00048745,-0.00324191,0.00136203,0.00262763,-0.00000152,-0.001
 36104,-0.04408479,0.12505714,0.00844056,-0.00387969,-0.00325769,-0.001
 14859,0.00022247,-0.00123922,0.00061540,0.00071264,0.00078160,0.071931
 68,-0.13556029,-0.24388876,-0.00019090,0.00034538,-0.00077035,0.000167
 58,0.00048899,0.00038210,0.00010570,0.00031310,0.00020580,0.00004640,0
 .00014185,0.00010378,0.00560574,0.00613910,-0.01417307,0.00025083,0.00
 021924,-0.00054321,-0.00074867,0.00208762,-0.00044586,-0.00633317,0.00
 308604,0.00527456,-0.07888669,0.12681276,0.25565274,-0.09653230,0.0685
 3778,0.08140203,-0.00922650,0.02060898,0.02211499,0.00359476,-0.000021
 83,-0.00167156,0.00600881,-0.01382935,-0.01603032,0.00006174,-0.000002
 15,0.00004621,-0.00001377,-0.00001684,0.00000752,-0.00002439,0.0000398
 3,0.00000721,-0.00000109,-0.00000037,-0.00001636,0.00001968,0.00030872
 ,-0.00009102,-0.00006009,-0.00001034,0.00005226,0.00003088,0.00003081,
 0.00009986,0.00204692,-0.00067148,-0.00074804,-0.00200621,-0.00308084,
 -0.00115828,0.10153294,0.06782966,-0.15112180,-0.13402580,-0.00252676,
 0.00160288,-0.00036488,0.00037305,-0.00057939,0.00276582,0.01017191,-0
 .01334261,-0.01224442,-0.00015306,-0.00017480,-0.00016478,-0.00003200,
 0.00000476,0.00010520,-0.00004261,0.00002571,0.00010326,0.00003530,0.0
 0000818,0.00000401,0.00024723,0.00157634,-0.00116171,-0.00000132,0.000
 02237,-0.00012968,-0.00006433,-0.00026994,-0.00004492,-0.00234879,-0.0
 0026899,0.00131483,-0.00213478,0.00179238,-0.00187376,-0.07073570,0.15
 851490,0.07936161,-0.13536470,-0.16675846,-0.00074606,-0.00458248,-0.0
 0178772,-0.00080645,0.00315279,-0.00100325,0.00496314,-0.00473196,-0.0
 1033733,0.00021413,0.00023643,0.00028781,-0.00000889,-0.00005370,-0.00
 010903,0.00004232,0.00007539,-0.00008335,-0.00004047,-0.00000421,-0.00
 002314,-0.00015978,-0.00091726,0.00092020,-0.00004639,0.00003315,0.000
 05778,0.00009195,-0.00003193,0.00009244,0.00281070,0.00135414,-0.00030
 097,-0.00170652,-0.00477828,0.00136634,-0.08480985,0.14730347,0.175154
 87,-0.00920648,0.01908847,0.02226358,-0.12505598,0.03432069,0.03856352
 ,0.01726522,-0.01818121,-0.01506353,-0.00249232,0.00112642,0.00050311,
 0.00010138,0.00006804,-0.00000223,-0.00001851,-0.00004066,0.00002642,-
 0.00002482,0.00003712,0.00000942,0.00000537,-0.00000057,-0.00003241,0.
 00043087,-0.00032350,0.00026675,-0.00006176,-0.00005654,-0.00014268,0.
 00003130,0.00012530,-0.00015614,-0.00021020,0.00016633,-0.00002798,-0.
 00179051,0.00019065,0.00091099,-0.00498536,-0.00058301,0.00078991,0.57
 897831,0.00650380,0.00869355,-0.00462503,0.02821177,-0.11047647,-0.027
 38563,-0.00088057,-0.02267865,-0.04120383,-0.00158501,-0.00422682,0.00
 015900,-0.00019983,0.00004457,-0.00041637,0.00007322,0.00018232,0.0000
 6834,0.00001440,-0.00001697,0.00002415,0.00001402,0.00001214,0.0000566
 3,0.00017713,0.00191485,-0.00061904,-0.00026716,-0.00006048,0.00025903
 ,-0.00001066,-0.00013119,0.00019093,-0.00030976,-0.00025163,0.00008804
 ,0.00026879,0.00093711,-0.00010178,-0.00204215,0.00192136,-0.00116891,
 0.04198029,0.51565988,0.00855729,-0.00707673,0.00482118,0.03478981,-0.
 02799402,-0.11986028,0.00014688,-0.03839356,-0.01180521,-0.00092755,-0
 .00246655,-0.00218452,-0.00008134,0.00004593,-0.00016541,0.00000447,0.
 00006925,0.00003484,0.00000920,0.00001095,0.00002653,-0.00001066,-0.00
 001790,-0.00000126,-0.00001887,0.00073041,-0.00005738,0.00015301,0.000
 16600,-0.00012129,-0.00003724,-0.00007213,0.00011209,0.00138850,0.0003
 9808,-0.00035954,-0.00058170,-0.00058139,0.00089044,-0.00016637,-0.001
 38976,0.00240288,0.02911886,-0.02481367,0.50625147,-0.00255428,-0.0012
 6579,0.00091515,0.00277403,0.01269796,-0.00821357,0.00019912,-0.000390
 50,0.00102783,-0.00003974,0.00298150,-0.00003234,0.00006391,-0.0002228
 4,0.00016140,-0.00002348,-0.00004853,-0.00004375,0.00000763,-0.0000012
 8,-0.00002829,0.00003427,0.00003813,-0.00000847,-0.00023043,-0.0009475
 1,0.00034571,-0.00100409,-0.00062326,0.00072305,0.00015860,0.00013511,
 -0.00002760,0.00024886,-0.00010389,-0.00003862,-0.00095489,0.00000934,
 -0.00012344,0.00018649,-0.00030651,0.00025066,-0.04985093,-0.02775546,
 0.01088228,0.05067236,0.00087248,0.00142535,-0.00098653,-0.00626593,-0
 .01609438,0.00908107,0.00183255,-0.00144722,-0.00461976,-0.00057693,-0
 .00072685,-0.00032662,0.00002085,0.00004322,-0.00011087,0.00000531,0.0
 0002860,0.00006484,0.00001153,0.00000484,-0.00000955,0.00001709,-0.000
 01313,-0.00003802,0.00052109,0.00047437,-0.00012658,-0.00012773,0.0000
 6217,0.00022989,0.,0.00009522,-0.00010577,0.00012973,0.00007311,0.0000
 3646,-0.00003607,0.00020687,0.00033900,0.00003647,0.00023483,-0.000357
 83,-0.02870907,-0.29035199,0.07469955,0.03237721,0.31266749,0.00095724
 ,0.00126606,-0.00031664,-0.00591859,-0.02146615,0.00907807,0.00100624,
 -0.00071337,-0.00518410,-0.00005509,-0.00083311,0.00086437,-0.00012123
 ,0.00006457,-0.00006979,0.00001522,0.00003857,0.00001636,0.00005390,0.
 00000199,-0.00000914,-0.00000808,-0.00002716,-0.00000229,0.00027173,0.
 00038861,-0.00050480,0.00045943,0.00041371,-0.00080146,-0.00008050,-0.
 00002206,0.00001688,0.00008210,-0.00009917,-0.00005464,0.00021393,0.00
 012783,-0.00048028,-0.00022760,0.00029051,-0.00034282,0.01093538,0.071
 07725,-0.06266219,-0.01199985,-0.07960047,0.06929592,-0.00029751,0.001
 82232,0.00208242,-0.01682539,-0.00523730,-0.00108850,0.00398057,-0.000
 94041,-0.00204786,0.00099405,0.00094727,-0.00001839,0.00004303,0.00001
 049,0.00014244,-0.00001990,-0.00005789,-0.00003166,0.00000028,0.000009
 29,-0.00001364,-0.00000726,-0.00000144,-0.00000937,-0.00014263,-0.0003
 8014,0.00016009,0.00000809,0.00008065,-0.00006844,0.00001137,-0.000033
 23,-0.00001100,-0.00021930,-0.00004901,0.00000528,0.00019801,0.0001451
 0,0.00014458,-0.00075958,0.00000512,0.00018735,-0.31226005,-0.05616622
 ,0.01407916,-0.00090984,0.00028593,0.00006861,0.33596735,0.00068556,-0
 .00201651,-0.00290537,0.02299084,0.00276612,-0.00150761,-0.00048918,0.
 00171322,0.00217848,-0.00047655,-0.00086821,-0.00049186,0.00001668,0.0
 0007553,-0.00003276,-0.00000054,0.00000333,0.00001652,0.00000587,0.000
 01737,0.00000616,-0.00000393,-0.00001268,-0.00001279,0.00016238,0.0001
 7338,0.00005490,0.00018319,0.00009693,-0.00022148,-0.00003540,-0.00000
 629,-0.00003540,0.00000263,0.00012329,0.00004789,-0.00021520,0.0000249
 5,0.00042822,0.00094772,0.00027725,-0.00036863,-0.06032402,-0.05825164
 ,0.00388901,-0.02969692,-0.00467818,0.00041192,0.06163176,0.06046972,0
 .00078793,-0.00340713,-0.00214167,0.02391384,0.00527104,-0.00292085,-0
 .00161046,0.00221334,0.00200852,-0.00086981,-0.00090229,-0.00039416,-0
 .00002415,0.00001147,-0.00010870,0.00001568,0.00004313,0.00002115,0.00
 000005,0.00000203,0.00000578,0.00000458,0.00000760,0.00001000,0.000060
 05,0.00041357,-0.00010932,-0.00007916,-0.00010026,0.00011047,0.0000107
 4,-0.00001660,0.00003806,-0.00008460,0.00011494,0.00011613,0.00011289,
 0.00039309,0.00008505,0.00112405,-0.00026531,0.00022739,0.01046528,0.0
 0288718,-0.04663496,0.00956644,0.00149801,-0.00124872,-0.01516444,-0.0
 0111156,0.04752634,-0.00233282,0.00000018,-0.00123404,0.00783396,-0.00
 597703,0.01260646,0.00007419,0.00192208,-0.00031743,-0.00027609,0.0011
 3902,0.00195579,0.00001500,-0.00003408,0.00005934,0.00000076,-0.000019
 19,-0.00001228,0.00000912,-0.00000733,-0.00001307,0.00000313,0.0000063
 2,0.00000428,0.00007184,-0.00026672,-0.00030101,0.00001605,0.00000672,
 0.00001066,-0.00001487,0.00008941,-0.00006309,-0.00042568,-0.00011496,
 0.00011514,-0.00118163,-0.00030022,0.00037028,0.00012707,0.00026659,-0
 .00038735,-0.09085552,0.01197339,-0.09730573,0.00122241,-0.00039451,0.
 00434716,-0.00976127,0.00461511,-0.02822891,0.09547436,0.00066344,-0.0
 0013662,0.00112432,-0.01213961,0.00349020,-0.01833239,0.00232498,-0.00
 526962,-0.00128355,-0.00037810,-0.00000489,0.00030488,-0.00001222,0.00
 001825,-0.00007351,0.00001558,0.00002801,0.00001937,-0.00000077,-0.000
 00906,0.00000398,0.00000270,-0.00000612,-0.00000162,0.00015165,0.00018
 278,-0.00004106,0.00013883,0.00001383,-0.00003085,-0.00002574,0.000037
 95,-0.00003703,0.00042581,-0.00001628,-0.00008394,-0.00032875,-0.00004
 161,0.00007910,-0.00009925,-0.00022342,0.00020451,0.01111528,-0.042919
 94,0.02279652,0.01312326,-0.00200431,0.02868046,-0.00207229,0.00009242
 ,-0.00705226,-0.01290480,0.04676844,0.00158005,-0.00089497,0.00148460,
 -0.01229939,0.00566940,-0.01546412,0.00235160,-0.00409308,-0.00149236,
 -0.00076502,-0.00127493,-0.00006364,-0.00002443,0.00005309,-0.00015014
 ,0.00002128,0.00005227,0.00003531,0.00000543,0.00001219,0.00000566,0.0
 0000264,0.00000748,0.00000956,0.00013172,0.00060969,-0.00018608,-0.000
 05271,-0.00004147,0.00005074,-0.00000060,-0.00000043,0.00001915,-0.000
 01285,0.00019017,0.00011158,0.00080465,0.00069839,0.00005602,0.0000652
 6,-0.00022210,0.00023635,-0.09842825,0.02552371,-0.27068740,-0.0033565
 7,0.00033318,-0.00759474,0.00158338,-0.00034565,0.00340948,0.10839381,
 -0.02627693,0.29022003\\-0.00000277,0.00000210,-0.00000297,-0.00000534
 ,0.00000268,0.00000110,-0.00000608,0.00000424,0.00000449,-0.00000113,-
 0.00000220,-0.00000681,0.00000190,-0.00000167,-0.00000139,0.00000054,0
 .00000003,0.00000095,0.00000632,-0.00000309,0.00000199,0.00000382,-0.0
 0000386,-0.00000669,-0.00000284,-0.00000016,-0.00000205,-0.00000340,0.
 00000301,0.00000227,-0.00000677,0.00000233,-0.00000510,0.00000111,-0.0
 0000383,-0.00001516,0.00000546,-0.00000334,-0.00000240,-0.00000817,0.0
 0000224,-0.00000726,0.00000541,0.00000214,0.00000813,0.00000159,0.0000
 0075,0.00001223,0.00000355,0.00000127,0.00001218,0.00000679,-0.0000026
 3,0.00000648\\\@


 IT IS BY LOGIC THAT WE PROVE, BUT BY INTUITION THAT WE DISCOVER.
     -- J.H.POINCARE (1854-1912)
 Job cpu time:       0 days  1 hours 51 minutes  0.2 seconds.
 Elapsed time:       0 days  0 hours  7 minutes  0.4 seconds.
 File lengths (MBytes):  RWF=    256 Int=      0 D2E=      0 Chk=     18 Scr=      1
 Normal termination of Gaussian 16 at Thu Feb 18 19:52:04 2021.
