 Entering Gaussian System, Link 0=g16
 Initial command:
 /apps/gaussian/16/A.03/g16/l1.exe "/beegfs/scratch/user/q/tla25/Gau-14662.inp" -scrdir="/beegfs/scratch/user/q/tla25/"
 Entering Link 1 = /apps/gaussian/16/A.03/g16/l1.exe PID=     14663.
  
 Copyright (c) 1988,1990,1992,1993,1995,1998,2003,2009,2016,
            Gaussian, Inc.  All Rights Reserved.
  
 This is part of the Gaussian(R) 16 program.  It is based on
 the Gaussian(R) 09 system (copyright 2009, Gaussian, Inc.),
 the Gaussian(R) 03 system (copyright 2003, Gaussian, Inc.),
 the Gaussian(R) 98 system (copyright 1998, Gaussian, Inc.),
 the Gaussian(R) 94 system (copyright 1995, Gaussian, Inc.),
 the Gaussian 92(TM) system (copyright 1992, Gaussian, Inc.),
 the Gaussian 90(TM) system (copyright 1990, Gaussian, Inc.),
 the Gaussian 88(TM) system (copyright 1988, Gaussian, Inc.),
 the Gaussian 86(TM) system (copyright 1986, Carnegie Mellon
 University), and the Gaussian 82(TM) system (copyright 1983,
 Carnegie Mellon University). Gaussian is a federally registered
 trademark of Gaussian, Inc.
  
 This software contains proprietary and confidential information,
 including trade secrets, belonging to Gaussian, Inc.
  
 This software is provided under written license and may be
 used, copied, transmitted, or stored only in accord with that
 written license.
  
 The following legend is applicable only to US Government
 contracts under FAR:
  
                    RESTRICTED RIGHTS LEGEND
  
 Use, reproduction and disclosure by the US Government is
 subject to restrictions as set forth in subparagraphs (a)
 and (c) of the Commercial Computer Software - Restricted
 Rights clause in FAR 52.227-19.
  
 Gaussian, Inc.
 340 Quinnipiac St., Bldg. 40, Wallingford CT 06492
  
  
 ---------------------------------------------------------------
 Warning -- This program may not be used in any manner that
 competes with the business of Gaussian, Inc. or will provide
 assistance to any competitor of Gaussian, Inc.  The licensee
 of this program is prohibited from giving any competitor of
 Gaussian, Inc. access to this program.  By using this program,
 the user acknowledges that Gaussian, Inc. is engaged in the
 business of creating and licensing software in the field of
 computational chemistry and represents and warrants to the
 licensee that it is not a competitor of Gaussian, Inc. and that
 it will not use this program in any manner prohibited above.
 ---------------------------------------------------------------
  

 Cite this work as:
 Gaussian 16, Revision A.03,
 M. J. Frisch, G. W. Trucks, H. B. Schlegel, G. E. Scuseria, 
 M. A. Robb, J. R. Cheeseman, G. Scalmani, V. Barone, 
 G. A. Petersson, H. Nakatsuji, X. Li, M. Caricato, A. V. Marenich, 
 J. Bloino, B. G. Janesko, R. Gomperts, B. Mennucci, H. P. Hratchian, 
 J. V. Ortiz, A. F. Izmaylov, J. L. Sonnenberg, D. Williams-Young, 
 F. Ding, F. Lipparini, F. Egidi, J. Goings, B. Peng, A. Petrone, 
 T. Henderson, D. Ranasinghe, V. G. Zakrzewski, J. Gao, N. Rega, 
 G. Zheng, W. Liang, M. Hada, M. Ehara, K. Toyota, R. Fukuda, 
 J. Hasegawa, M. Ishida, T. Nakajima, Y. Honda, O. Kitao, H. Nakai, 
 T. Vreven, K. Throssell, J. A. Montgomery, Jr., J. E. Peralta, 
 F. Ogliaro, M. J. Bearpark, J. J. Heyd, E. N. Brothers, K. N. Kudin, 
 V. N. Staroverov, T. A. Keith, R. Kobayashi, J. Normand, 
 K. Raghavachari, A. P. Rendell, J. C. Burant, S. S. Iyengar, 
 J. Tomasi, M. Cossi, J. M. Millam, M. Klene, C. Adamo, R. Cammi, 
 J. W. Ochterski, R. L. Martin, K. Morokuma, O. Farkas, 
 J. B. Foresman, and D. J. Fox, Gaussian, Inc., Wallingford CT, 2016.
 
 ******************************************
 Gaussian 16:  ES64L-G16RevA.03 25-Dec-2016
                31-Jan-2021 
 ******************************************
 %nprocshared=16
 Will use up to   16 processors via shared memory.
 %mem=48GB
 ----------------------------------------------------------------------
 # wB97XD def2tzvp, opt=(ts, noeigen, calcfc, maxcycles=70, maxstep=5),
  freq=noraman, scrf=(iefpcm, solvent=water)
 ----------------------------------------------------------------------
 1/5=1,6=70,8=5,10=4,11=1,18=20,26=3,38=1/1,3;
 2/9=110,12=2,17=6,18=5,40=1/2;
 3/5=44,7=101,11=2,25=1,30=1,70=2201,71=2,72=1,74=-58,140=1/1,2,3;
 4//1;
 5/5=2,38=5,53=1/2;
 8/6=4,10=90,11=11/1;
 11/6=1,8=1,9=11,15=111,16=1/1,2,10;
 10/6=1,13=1/2;
 6/7=2,8=2,9=2,10=2,28=1/1;
 7/10=1,18=20,25=1/1,2,3,16;
 1/5=1,6=70,8=5,10=4,11=1,18=20,26=3/3(2);
 2/9=110/2;
 99//99;
 2/9=110/2;
 3/5=44,7=101,11=2,25=1,30=1,70=2205,71=1,72=1,74=-58/1,2,3;
 4/5=5,16=3,69=1/1;
 5/5=2,38=5,53=1/2;
 7//1,2,3,16;
 1/5=1,6=70,8=5,11=1,18=20,26=3/3(-5);
 2/9=110/2;
 6/7=2,8=2,9=2,10=2,19=2,28=1/1;
 99/9=1/99;
 -----------------------
 2_iteration/TS-70-2.out
 -----------------------
 Symbolic Z-matrix:
 Charge =  0 Multiplicity = 1
 C                    -0.75072   0.04169   0.18034 
 C                    -2.01669   0.74046   0.3265 
 O                    -2.04679   1.98578   0.25136 
 C                     0.41622   0.7984    0.3161 
 C                     1.57569   3.07221  -0.9598 
 H                     2.55761   2.61351  -1.06335 
 H                     1.4684    3.86255  -1.70381 
 H                     1.49901   3.51168   0.03464 
 N                     0.54754   2.04842  -1.10159 
 H                    -0.3959    2.41734  -0.99348 
 H                     0.60879   1.55686  -1.98444 
 C                     1.78579   0.213     0.39286 
 C                     2.43845  -0.35157  -0.69899 
 C                     3.71341  -0.87866  -0.56321 
 C                     4.35326  -0.85429   0.66786 
 C                     3.71345  -0.28909   1.761 
 C                     2.44283   0.24801   1.61986 
 H                     1.95465  -0.38007  -1.66619 
 H                     4.20841  -1.31012  -1.42398 
 H                     5.34829  -1.26774   0.77243 
 H                     4.20641  -0.25712   2.72434 
 H                     1.95143   0.69862   2.47417 
 H                     0.27873   1.59716   1.03977 
 Br                   -0.71559  -1.57634  -0.85736 
 N                    -3.17072   0.04728   0.53775 
 C                    -3.22123  -1.24155   1.19656 
 C                    -4.43211   0.75221   0.46904 
 H                    -2.23176  -1.53119   1.53847 
 H                    -3.87712  -1.17083   2.0689 
 H                    -3.61002  -2.01995   0.53532 
 H                    -4.37031   1.5562   -0.2594 
 H                    -5.21153   0.05196   0.16471 
 H                    -4.71302   1.18192   1.43696 
 
 Add virtual bond connecting atoms N9         and C4         Dist= 3.58D+00.

 GradGradGradGradGradGradGradGradGradGradGradGradGradGradGradGradGradGrad
 Berny optimization.
 Initialization pass.
                           ----------------------------
                           !    Initial Parameters    !
                           ! (Angstroms and Degrees)  !
 --------------------------                            --------------------------
 ! Name  Definition              Value          Derivative Info.                !
 --------------------------------------------------------------------------------
 ! R1    R(1,2)                  1.4534         calculate D2E/DX2 analytically  !
 ! R2    R(1,4)                  1.3974         calculate D2E/DX2 analytically  !
 ! R3    R(1,24)                 1.9225         calculate D2E/DX2 analytically  !
 ! R4    R(2,3)                  1.2479         calculate D2E/DX2 analytically  !
 ! R5    R(2,25)                 1.3627         calculate D2E/DX2 analytically  !
 ! R6    R(4,9)                  1.8946         calculate D2E/DX2 analytically  !
 ! R7    R(4,12)                 1.4914         calculate D2E/DX2 analytically  !
 ! R8    R(4,23)                 1.0866         calculate D2E/DX2 analytically  !
 ! R9    R(5,6)                  1.0887         calculate D2E/DX2 analytically  !
 ! R10   R(5,7)                  1.0907         calculate D2E/DX2 analytically  !
 ! R11   R(5,8)                  1.0899         calculate D2E/DX2 analytically  !
 ! R12   R(5,9)                  1.4579         calculate D2E/DX2 analytically  !
 ! R13   R(9,10)                 1.0188         calculate D2E/DX2 analytically  !
 ! R14   R(9,11)                 1.0123         calculate D2E/DX2 analytically  !
 ! R15   R(12,13)                1.3917         calculate D2E/DX2 analytically  !
 ! R16   R(12,17)                1.3923         calculate D2E/DX2 analytically  !
 ! R17   R(13,14)                1.3863         calculate D2E/DX2 analytically  !
 ! R18   R(13,18)                1.0818         calculate D2E/DX2 analytically  !
 ! R19   R(14,15)                1.3876         calculate D2E/DX2 analytically  !
 ! R20   R(14,19)                1.0826         calculate D2E/DX2 analytically  !
 ! R21   R(15,16)                1.387          calculate D2E/DX2 analytically  !
 ! R22   R(15,20)                1.0826         calculate D2E/DX2 analytically  !
 ! R23   R(16,17)                1.3867         calculate D2E/DX2 analytically  !
 ! R24   R(16,21)                1.0826         calculate D2E/DX2 analytically  !
 ! R25   R(17,22)                1.0837         calculate D2E/DX2 analytically  !
 ! R26   R(25,26)                1.4483         calculate D2E/DX2 analytically  !
 ! R27   R(25,27)                1.4466         calculate D2E/DX2 analytically  !
 ! R28   R(26,28)                1.0862         calculate D2E/DX2 analytically  !
 ! R29   R(26,29)                1.0937         calculate D2E/DX2 analytically  !
 ! R30   R(26,30)                1.0928         calculate D2E/DX2 analytically  !
 ! R31   R(27,31)                1.0867         calculate D2E/DX2 analytically  !
 ! R32   R(27,32)                1.0911         calculate D2E/DX2 analytically  !
 ! R33   R(27,33)                1.0956         calculate D2E/DX2 analytically  !
 ! A1    A(2,1,4)              117.2108         calculate D2E/DX2 analytically  !
 ! A2    A(2,1,24)             118.3489         calculate D2E/DX2 analytically  !
 ! A3    A(4,1,24)             119.5327         calculate D2E/DX2 analytically  !
 ! A4    A(1,2,3)              119.652          calculate D2E/DX2 analytically  !
 ! A5    A(1,2,25)             120.5769         calculate D2E/DX2 analytically  !
 ! A6    A(3,2,25)             119.7703         calculate D2E/DX2 analytically  !
 ! A7    A(1,4,9)              110.0264         calculate D2E/DX2 analytically  !
 ! A8    A(1,4,12)             124.0072         calculate D2E/DX2 analytically  !
 ! A9    A(1,4,23)             110.9229         calculate D2E/DX2 analytically  !
 ! A10   A(9,4,12)             103.5227         calculate D2E/DX2 analytically  !
 ! A11   A(9,4,23)              91.2673         calculate D2E/DX2 analytically  !
 ! A12   A(12,4,23)            111.7445         calculate D2E/DX2 analytically  !
 ! A13   A(6,5,7)              109.2158         calculate D2E/DX2 analytically  !
 ! A14   A(6,5,8)              108.67           calculate D2E/DX2 analytically  !
 ! A15   A(6,5,9)              109.326          calculate D2E/DX2 analytically  !
 ! A16   A(7,5,8)              108.8612         calculate D2E/DX2 analytically  !
 ! A17   A(7,5,9)              111.9093         calculate D2E/DX2 analytically  !
 ! A18   A(8,5,9)              108.801          calculate D2E/DX2 analytically  !
 ! A19   A(4,9,5)              116.0677         calculate D2E/DX2 analytically  !
 ! A20   A(4,9,10)              95.4702         calculate D2E/DX2 analytically  !
 ! A21   A(4,9,11)             109.657          calculate D2E/DX2 analytically  !
 ! A22   A(5,9,10)             112.86           calculate D2E/DX2 analytically  !
 ! A23   A(5,9,11)             112.5288         calculate D2E/DX2 analytically  !
 ! A24   A(10,9,11)            108.9303         calculate D2E/DX2 analytically  !
 ! A25   A(4,12,13)            123.333          calculate D2E/DX2 analytically  !
 ! A26   A(4,12,17)            117.9597         calculate D2E/DX2 analytically  !
 ! A27   A(13,12,17)           118.7046         calculate D2E/DX2 analytically  !
 ! A28   A(12,13,14)           120.5776         calculate D2E/DX2 analytically  !
 ! A29   A(12,13,18)           120.1574         calculate D2E/DX2 analytically  !
 ! A30   A(14,13,18)           119.2647         calculate D2E/DX2 analytically  !
 ! A31   A(13,14,15)           120.2846         calculate D2E/DX2 analytically  !
 ! A32   A(13,14,19)           119.614          calculate D2E/DX2 analytically  !
 ! A33   A(15,14,19)           120.1014         calculate D2E/DX2 analytically  !
 ! A34   A(14,15,16)           119.5815         calculate D2E/DX2 analytically  !
 ! A35   A(14,15,20)           120.186          calculate D2E/DX2 analytically  !
 ! A36   A(16,15,20)           120.2312         calculate D2E/DX2 analytically  !
 ! A37   A(15,16,17)           120.0199         calculate D2E/DX2 analytically  !
 ! A38   A(15,16,21)           120.218          calculate D2E/DX2 analytically  !
 ! A39   A(17,16,21)           119.7597         calculate D2E/DX2 analytically  !
 ! A40   A(12,17,16)           120.8224         calculate D2E/DX2 analytically  !
 ! A41   A(12,17,22)           119.4206         calculate D2E/DX2 analytically  !
 ! A42   A(16,17,22)           119.7568         calculate D2E/DX2 analytically  !
 ! A43   A(2,25,26)            123.5537         calculate D2E/DX2 analytically  !
 ! A44   A(2,25,27)            118.8942         calculate D2E/DX2 analytically  !
 ! A45   A(26,25,27)           115.1394         calculate D2E/DX2 analytically  !
 ! A46   A(25,26,28)           110.4079         calculate D2E/DX2 analytically  !
 ! A47   A(25,26,29)           109.0374         calculate D2E/DX2 analytically  !
 ! A48   A(25,26,30)           111.7778         calculate D2E/DX2 analytically  !
 ! A49   A(28,26,29)           108.208          calculate D2E/DX2 analytically  !
 ! A50   A(28,26,30)           108.9417         calculate D2E/DX2 analytically  !
 ! A51   A(29,26,30)           108.3796         calculate D2E/DX2 analytically  !
 ! A52   A(25,27,31)           110.0464         calculate D2E/DX2 analytically  !
 ! A53   A(25,27,32)           108.868          calculate D2E/DX2 analytically  !
 ! A54   A(25,27,33)           111.883          calculate D2E/DX2 analytically  !
 ! A55   A(31,27,32)           109.1774         calculate D2E/DX2 analytically  !
 ! A56   A(31,27,33)           108.4578         calculate D2E/DX2 analytically  !
 ! A57   A(32,27,33)           108.3589         calculate D2E/DX2 analytically  !
 ! D1    D(4,1,2,3)             16.6161         calculate D2E/DX2 analytically  !
 ! D2    D(4,1,2,25)          -163.7258         calculate D2E/DX2 analytically  !
 ! D3    D(24,1,2,3)          -138.5059         calculate D2E/DX2 analytically  !
 ! D4    D(24,1,2,25)           41.1522         calculate D2E/DX2 analytically  !
 ! D5    D(2,1,4,9)            -66.1256         calculate D2E/DX2 analytically  !
 ! D6    D(2,1,4,12)           170.7713         calculate D2E/DX2 analytically  !
 ! D7    D(2,1,4,23)            33.3457         calculate D2E/DX2 analytically  !
 ! D8    D(24,1,4,9)            88.6907         calculate D2E/DX2 analytically  !
 ! D9    D(24,1,4,12)          -34.4124         calculate D2E/DX2 analytically  !
 ! D10   D(24,1,4,23)         -171.838          calculate D2E/DX2 analytically  !
 ! D11   D(1,2,25,26)           28.1054         calculate D2E/DX2 analytically  !
 ! D12   D(1,2,25,27)         -170.402          calculate D2E/DX2 analytically  !
 ! D13   D(3,2,25,26)         -152.2369         calculate D2E/DX2 analytically  !
 ! D14   D(3,2,25,27)            9.2558         calculate D2E/DX2 analytically  !
 ! D15   D(1,4,9,5)            168.8982         calculate D2E/DX2 analytically  !
 ! D16   D(1,4,9,10)            50.1279         calculate D2E/DX2 analytically  !
 ! D17   D(1,4,9,11)           -62.2229         calculate D2E/DX2 analytically  !
 ! D18   D(12,4,9,5)           -56.6808         calculate D2E/DX2 analytically  !
 ! D19   D(12,4,9,10)         -175.4511         calculate D2E/DX2 analytically  !
 ! D20   D(12,4,9,11)           72.1981         calculate D2E/DX2 analytically  !
 ! D21   D(23,4,9,5)            56.0526         calculate D2E/DX2 analytically  !
 ! D22   D(23,4,9,10)          -62.7177         calculate D2E/DX2 analytically  !
 ! D23   D(23,4,9,11)         -175.0685         calculate D2E/DX2 analytically  !
 ! D24   D(1,4,12,13)           72.2099         calculate D2E/DX2 analytically  !
 ! D25   D(1,4,12,17)         -108.3972         calculate D2E/DX2 analytically  !
 ! D26   D(9,4,12,13)          -53.7451         calculate D2E/DX2 analytically  !
 ! D27   D(9,4,12,17)          125.6478         calculate D2E/DX2 analytically  !
 ! D28   D(23,4,12,13)        -150.6609         calculate D2E/DX2 analytically  !
 ! D29   D(23,4,12,17)          28.732          calculate D2E/DX2 analytically  !
 ! D30   D(6,5,9,4)             70.0141         calculate D2E/DX2 analytically  !
 ! D31   D(6,5,9,10)           178.7623         calculate D2E/DX2 analytically  !
 ! D32   D(6,5,9,11)           -57.4557         calculate D2E/DX2 analytically  !
 ! D33   D(7,5,9,4)           -168.856          calculate D2E/DX2 analytically  !
 ! D34   D(7,5,9,10)           -60.1078         calculate D2E/DX2 analytically  !
 ! D35   D(7,5,9,11)            63.6742         calculate D2E/DX2 analytically  !
 ! D36   D(8,5,9,4)            -48.5243         calculate D2E/DX2 analytically  !
 ! D37   D(8,5,9,10)            60.2239         calculate D2E/DX2 analytically  !
 ! D38   D(8,5,9,11)          -175.9941         calculate D2E/DX2 analytically  !
 ! D39   D(4,12,13,14)         179.9319         calculate D2E/DX2 analytically  !
 ! D40   D(4,12,13,18)           0.1441         calculate D2E/DX2 analytically  !
 ! D41   D(17,12,13,14)          0.5434         calculate D2E/DX2 analytically  !
 ! D42   D(17,12,13,18)       -179.2445         calculate D2E/DX2 analytically  !
 ! D43   D(4,12,17,16)         179.4633         calculate D2E/DX2 analytically  !
 ! D44   D(4,12,17,22)          -0.3529         calculate D2E/DX2 analytically  !
 ! D45   D(13,12,17,16)         -1.1151         calculate D2E/DX2 analytically  !
 ! D46   D(13,12,17,22)        179.0688         calculate D2E/DX2 analytically  !
 ! D47   D(12,13,14,15)          0.2665         calculate D2E/DX2 analytically  !
 ! D48   D(12,13,14,19)       -179.7275         calculate D2E/DX2 analytically  !
 ! D49   D(18,13,14,15)       -179.9437         calculate D2E/DX2 analytically  !
 ! D50   D(18,13,14,19)          0.0622         calculate D2E/DX2 analytically  !
 ! D51   D(13,14,15,16)         -0.5175         calculate D2E/DX2 analytically  !
 ! D52   D(13,14,15,20)        179.9049         calculate D2E/DX2 analytically  !
 ! D53   D(19,14,15,16)        179.4765         calculate D2E/DX2 analytically  !
 ! D54   D(19,14,15,20)         -0.1011         calculate D2E/DX2 analytically  !
 ! D55   D(14,15,16,17)         -0.0488         calculate D2E/DX2 analytically  !
 ! D56   D(14,15,16,21)       -179.4875         calculate D2E/DX2 analytically  !
 ! D57   D(20,15,16,17)        179.5285         calculate D2E/DX2 analytically  !
 ! D58   D(20,15,16,21)          0.0899         calculate D2E/DX2 analytically  !
 ! D59   D(15,16,17,12)          0.876          calculate D2E/DX2 analytically  !
 ! D60   D(15,16,17,22)       -179.3084         calculate D2E/DX2 analytically  !
 ! D61   D(21,16,17,12)       -179.6828         calculate D2E/DX2 analytically  !
 ! D62   D(21,16,17,22)          0.1328         calculate D2E/DX2 analytically  !
 ! D63   D(2,25,26,28)           3.3205         calculate D2E/DX2 analytically  !
 ! D64   D(2,25,26,29)         122.0753         calculate D2E/DX2 analytically  !
 ! D65   D(2,25,26,30)        -118.1197         calculate D2E/DX2 analytically  !
 ! D66   D(27,25,26,28)       -158.8016         calculate D2E/DX2 analytically  !
 ! D67   D(27,25,26,29)        -40.0468         calculate D2E/DX2 analytically  !
 ! D68   D(27,25,26,30)         79.7582         calculate D2E/DX2 analytically  !
 ! D69   D(2,25,27,31)          32.447          calculate D2E/DX2 analytically  !
 ! D70   D(2,25,27,32)         152.0664         calculate D2E/DX2 analytically  !
 ! D71   D(2,25,27,33)         -88.2002         calculate D2E/DX2 analytically  !
 ! D72   D(26,25,27,31)       -164.5434         calculate D2E/DX2 analytically  !
 ! D73   D(26,25,27,32)        -44.9241         calculate D2E/DX2 analytically  !
 ! D74   D(26,25,27,33)         74.8093         calculate D2E/DX2 analytically  !
 --------------------------------------------------------------------------------
 Trust Radius=5.00D-02 FncErr=1.00D-07 GrdErr=1.00D-06 EigMax=2.50D+02 EigMin=1.00D-04
 Number of steps in this run=     70 maximum allowed number of steps=    198.
 Search for a saddle point of order  1.
 GradGradGradGradGradGradGradGradGradGradGradGradGradGradGradGradGradGrad

                          Input orientation:                          
 ---------------------------------------------------------------------
 Center     Atomic      Atomic             Coordinates (Angstroms)
 Number     Number       Type             X           Y           Z
 ---------------------------------------------------------------------
      1          6           0       -0.750720    0.041690    0.180340
      2          6           0       -2.016690    0.740460    0.326500
      3          8           0       -2.046790    1.985780    0.251360
      4          6           0        0.416220    0.798400    0.316100
      5          6           0        1.575690    3.072210   -0.959800
      6          1           0        2.557610    2.613510   -1.063350
      7          1           0        1.468400    3.862550   -1.703810
      8          1           0        1.499010    3.511680    0.034640
      9          7           0        0.547540    2.048420   -1.101590
     10          1           0       -0.395900    2.417340   -0.993480
     11          1           0        0.608790    1.556860   -1.984440
     12          6           0        1.785790    0.213000    0.392860
     13          6           0        2.438450   -0.351570   -0.698990
     14          6           0        3.713410   -0.878660   -0.563210
     15          6           0        4.353260   -0.854290    0.667860
     16          6           0        3.713450   -0.289090    1.761000
     17          6           0        2.442830    0.248010    1.619860
     18          1           0        1.954650   -0.380070   -1.666190
     19          1           0        4.208410   -1.310120   -1.423980
     20          1           0        5.348290   -1.267740    0.772430
     21          1           0        4.206410   -0.257120    2.724340
     22          1           0        1.951430    0.698620    2.474170
     23          1           0        0.278730    1.597160    1.039770
     24         35           0       -0.715590   -1.576340   -0.857360
     25          7           0       -3.170720    0.047280    0.537750
     26          6           0       -3.221230   -1.241550    1.196560
     27          6           0       -4.432110    0.752210    0.469040
     28          1           0       -2.231760   -1.531190    1.538470
     29          1           0       -3.877120   -1.170830    2.068900
     30          1           0       -3.610020   -2.019950    0.535320
     31          1           0       -4.370310    1.556200   -0.259400
     32          1           0       -5.211530    0.051960    0.164710
     33          1           0       -4.713020    1.181920    1.436960
 ---------------------------------------------------------------------
                    Distance matrix (angstroms):
                    1          2          3          4          5
     1  C    0.000000
     2  C    1.453383   0.000000
     3  O    2.337590   1.247948   0.000000
     4  C    1.397423   2.433622   2.735047   0.000000
     5  C    3.986998   4.471780   3.971096   2.853507   0.000000
     6  H    4.371049   5.134610   4.829390   3.127788   1.088713
     7  H    4.803487   5.100535   4.438639   3.817870   1.090733
     8  H    4.138036   4.486088   3.866269   2.934884   1.089920
     9  N    2.712156   3.213328   2.926593   1.894634   1.457856
    10  H    2.673474   2.679782   2.112181   2.235063   2.077777
    11  H    2.971579   3.591671   3.497839   2.429985   2.069074
    12  C    2.551156   3.839462   4.225097   1.491411   3.170002
    13  C    3.331468   4.700259   5.146236   2.538159   3.540430
    14  C    4.618265   6.020563   6.484477   3.802260   4.509601
    15  C    5.204908   6.575410   7.014279   4.284321   5.077556
    16  C    4.747285   5.996021   6.374513   3.760598   4.824014
    17  C    3.509066   4.669326   5.004930   2.471815   3.922076
    18  H    3.302511   4.582351   5.028495   2.772189   3.544127
    19  H    5.384627   6.783873   7.266171   4.674873   5.133371
    20  H    6.266027   7.646872   8.095932   5.366795   6.005689
    21  H    5.579817   6.743276   7.088635   4.612947   5.619432
    22  H    3.604834   4.512229   4.752202   2.650300   4.191332
    23  H    2.053746   2.551792   2.486093   1.086563   2.802884
    24  Br   1.922518   2.908943   3.961067   2.880519   5.183577
    25  N    2.446257   1.362685   2.258987   3.671437   5.824197
    26  C    2.963584   2.477153   3.562074   4.262352   6.802121
    27  C    3.760428   2.419651   2.694222   4.850962   6.596790
    28  H    2.551852   2.583703   3.749659   3.732690   6.475285
    29  H    3.848537   3.185936   4.076487   5.038149   7.543842
    30  H    3.542875   3.194084   4.309315   4.919529   7.420045
    31  H    3.948233   2.558952   2.417470   4.880198   6.176064
    32  H    4.460849   3.272187   3.709818   5.679055   7.513507
    33  H    4.310341   2.949272   3.026652   5.264268   6.990388
                    6          7          8          9         10
     6  H    0.000000
     7  H    1.776702   0.000000
     8  H    1.770007   1.773769   0.000000
     9  N    2.088342   2.121726   2.082653   0.000000
    10  H    2.960842   2.463497   2.417704   1.018758   0.000000
    11  H    2.400586   2.476669   2.947965   1.012327   1.652825
    12  C    2.911821   4.220898   3.330444   2.671219   3.397179
    13  C    2.989759   4.439535   4.042952   3.081814   3.973302
    14  C    3.712313   5.368437   4.953390   4.345156   5.285374
    15  C    4.271661   6.016296   5.254465   5.102958   6.001511
    16  C    4.211651   5.855021   4.725454   4.866350   5.639032
    17  C    3.578880   5.006116   3.749035   3.773578   4.426503
    18  H    3.112635   4.270560   4.271551   2.862917   3.715256
    19  H    4.272010   5.860245   5.719980   4.978523   5.939609
    20  H    5.120750   6.892401   6.180950   6.128301   7.049395
    21  H    5.030472   6.639043   5.363614   5.774131   6.492779
    22  H    4.067961   5.263011   3.750906   4.071723   4.526428
    23  H    3.263338   3.751605   2.482893   2.204839   2.293889
    24  Br   5.320819   5.921808   5.620326   3.846301   4.008767
    25  N    6.477872   6.411108   5.836229   4.529620   3.957458
    26  C    7.305044   7.513762   6.798817   5.505363   5.115295
    27  C    7.393838   7.015092   6.556033   5.379958   4.604630
    28  H    6.847340   7.300411   6.450635   5.244810   5.037067
    29  H    8.095552   8.254868   7.413966   6.324017   5.862766
    30  H    7.878093   8.087513   7.546642   6.042881   5.688351
    31  H    7.054099   6.441747   6.193487   5.013663   4.132357
    32  H    8.272195   7.914128   7.551022   6.225452   5.488781
    33  H    7.820682   7.433718   6.781121   5.904960   5.105960
                   11         12         13         14         15
    11  H    0.000000
    12  C    2.973692   0.000000
    13  C    2.939752   1.391704   0.000000
    14  C    4.194081   2.412781   1.386284   0.000000
    15  C    5.183570   2.794036   2.405723   1.387637   0.000000
    16  C    5.203342   2.416563   2.771476   2.397821   1.386998
    17  C    4.250620   1.392285   2.395116   2.765783   2.402314
    18  H    2.379983   2.149403   1.081827   2.135039   3.380237
    19  H    4.635834   3.389674   2.139436   1.082639   2.145823
    20  H    6.167784   3.876606   3.386977   2.146660   1.082571
    21  H    6.197258   3.393555   3.854062   3.381915   2.146459
    22  H    4.734814   2.143622   3.377726   3.849424   3.382761
    23  H    3.042435   2.146071   3.388986   4.527279   4.769667
    24  Br   3.583467   3.319893   3.387198   4.493253   5.342368
    25  N    4.788003   4.961396   5.757725   7.032832   7.578920
    26  C    5.711297   5.275595   6.034663   7.163638   7.602788
    27  C    5.663718   6.241701   7.056006   8.371068   8.933258
    28  H    5.478656   4.527177   5.311176   6.339393   6.676724
    29  H    6.632740   6.065694   6.943978   8.039248   8.354775
    30  H    6.077921   5.841329   6.394607   7.492792   8.049233
    31  H    5.269459   6.334603   7.084634   8.447921   9.097854
    32  H    6.384332   7.002890   7.709151   9.002804   9.620793
    33  H    6.337840   6.653081   7.619540   8.902325   9.323899
                   16         17         18         19         20
    16  C    0.000000
    17  C    1.386677   0.000000
    18  H    3.853218   3.380966   0.000000
    19  H    3.381063   3.848377   2.450121   0.000000
    20  H    2.146562   3.384868   4.272191   2.474942   0.000000
    21  H    1.082615   2.141319   4.935817   4.279880   2.476933
    22  H    2.142171   1.083683   4.278570   4.931994   4.277984
    23  H    3.984396   2.615347   3.747048   5.474005   5.829199
    24  Br   5.303698   4.409137   3.035696   4.963639   6.286660
    25  N    7.000092   5.720419   5.595480   7.755158   8.623102
    26  C    7.022504   5.871929   5.977225   7.878546   8.580049
    27  C    8.312858   6.988806   6.828760   9.082693   9.991420
    28  H    6.077652   5.002396   5.396383   7.092304   7.623213
    29  H    7.647812   6.492805   6.970347   8.808826   9.316567
    30  H    7.624394   6.554149   6.204950   8.091388   8.992962
    31  H    8.534301   7.187618   6.762641   9.119565  10.173028
    32  H    9.073022   7.793916   7.408980   9.649584  10.659303
    33  H    8.560039   7.218852   7.518456   9.694697  10.376531
                   21         22         23         24         25
    21  H    0.000000
    22  H    2.461901   0.000000
    23  H    4.658626   2.379664   0.000000
    24  Br   6.228563   4.836066   3.828691   0.000000
    25  N    7.700382   5.514561   3.814821   3.257321   0.000000
    26  C    7.646767   5.670358   4.509166   3.257131   1.448332
    27  C    8.984940   6.691263   4.819926   4.581921   1.446635
    28  H    6.669301   4.831839   4.042009   2.835632   2.091567
    29  H    8.161368   6.134418   5.098232   4.326974   2.080195
    30  H    8.306380   6.486870   5.334823   3.242541   2.113393
    31  H    9.260181   6.940623   4.827328   4.850499   2.085978
    32  H    9.764468   7.553792   5.770297   4.889731   2.074629
    33  H    9.126030   6.761973   5.024714   5.371345   2.115343
                   26         27         28         29         30
    26  C    0.000000
    27  C    2.443480   0.000000
    28  H    1.086207   3.346511   0.000000
    29  H    1.093696   2.562352   1.765906   0.000000
    30  H    1.092842   2.892248   1.773358   1.773193   0.000000
    31  H    3.356726   1.086666   4.163858   3.619518   3.741453
    32  H    2.588277   1.091083   3.643159   2.627129   2.644806
    33  H    2.855948   1.095641   3.678032   2.575560   3.504502
                   31         32         33
    31  H    0.000000
    32  H    1.774897   0.000000
    33  H    1.770642   1.773116   0.000000
 Stoichiometry    C12H17BrN2O
 Framework group  C1[X(C12H17BrN2O)]
 Deg. of freedom    93
 Full point group                 C1      NOp   1
 Largest Abelian subgroup         C1      NOp   1
 Largest concise Abelian subgroup C1      NOp   1
                         Standard orientation:                         
 ---------------------------------------------------------------------
 Center     Atomic      Atomic             Coordinates (Angstroms)
 Number     Number       Type             X           Y           Z
 ---------------------------------------------------------------------
      1          6           0       -0.750720    0.041691    0.180339
      2          6           0       -2.016689    0.740461    0.326499
      3          8           0       -2.046789    1.985781    0.251359
      4          6           0        0.416221    0.798400    0.316099
      5          6           0        1.575691    3.072210   -0.959801
      6          1           0        2.557611    2.613510   -1.063351
      7          1           0        1.468401    3.862550   -1.703811
      8          1           0        1.499011    3.511680    0.034639
      9          7           0        0.547541    2.048420   -1.101591
     10          1           0       -0.395899    2.417340   -0.993481
     11          1           0        0.608791    1.556860   -1.984441
     12          6           0        1.785790    0.213000    0.392859
     13          6           0        2.438450   -0.351570   -0.698991
     14          6           0        3.713410   -0.878660   -0.563211
     15          6           0        4.353260   -0.854290    0.667859
     16          6           0        3.713450   -0.289090    1.760999
     17          6           0        2.442830    0.248010    1.619859
     18          1           0        1.954650   -0.380070   -1.666191
     19          1           0        4.208410   -1.310120   -1.423981
     20          1           0        5.348290   -1.267740    0.772429
     21          1           0        4.206410   -0.257120    2.724339
     22          1           0        1.951431    0.698620    2.474169
     23          1           0        0.278731    1.597160    1.039769
     24         35           0       -0.715590   -1.576339   -0.857361
     25          7           0       -3.170720    0.047281    0.537749
     26          6           0       -3.221230   -1.241549    1.196559
     27          6           0       -4.432109    0.752211    0.469039
     28          1           0       -2.231760   -1.531189    1.538469
     29          1           0       -3.877120   -1.170829    2.068899
     30          1           0       -3.610020   -2.019949    0.535319
     31          1           0       -4.370309    1.556201   -0.259401
     32          1           0       -5.211530    0.051961    0.164709
     33          1           0       -4.713019    1.181921    1.436959
 ---------------------------------------------------------------------
 Rotational constants (GHZ):           0.6410371           0.2715827           0.2318845
 Standard basis: def2TZVP (5D, 7F)
 There are   697 symmetry adapted cartesian basis functions of A   symmetry.
 There are   615 symmetry adapted basis functions of A   symmetry.
   615 basis functions,  1015 primitive gaussians,   697 cartesian basis functions
    73 alpha electrons       73 beta electrons
       nuclear repulsion energy      1517.1836674272 Hartrees.
 NAtoms=   33 NActive=   33 NUniq=   33 SFac= 1.00D+00 NAtFMM=   60 NAOKFM=F Big=F
 Integral buffers will be    131072 words long.
 Raffenetti 2 integral format.
 Two-electron integral symmetry is turned on.
 Nuclear repulsion after empirical dispersion term =     1517.1584449729 Hartrees.
 Force inversion solution in PCM.
 ------------------------------------------------------------------------------
 Polarizable Continuum Model (PCM)
 =================================
 Model                : PCM.
 Atomic radii         : UFF (Universal Force Field).
 Polarization charges : Total charges.
 Charge compensation  : None.
 Solution method      : Matrix inversion.
 Cavity type          : Scaled VdW (van der Waals Surface) (Alpha=1.100).
 Cavity algorithm     : GePol (No added spheres)
                        Default sphere list used, NSphG=   33.
                        Lebedev-Laikov grids with approx.  5.0 points / Ang**2.
                        Smoothing algorithm: York/Karplus (Gamma=1.0000).
                        Polarization charges: spherical gaussians, with
                                              point-specific exponents (IZeta= 3).
                        Self-potential: point-specific (ISelfS= 7).
                        Self-field    : sphere-specific E.n sum rule (ISelfD= 2).
 1st derivatives      : Analytical E(r).r(x)/FMM algorithm (CHGder, D1EAlg=3).
                        Cavity 1st derivative terms included.
 2nd derivatives      : Analytical E(r).r(xy)/FMM algorithm (CHGder, D2EAlg=3).
                        Cavity 2nd derivative terms included.
 Solvent              : Water, Eps=  78.355300 Eps(inf)=   1.777849
 ------------------------------------------------------------------------------
 One-electron integrals computed using PRISM.
   1 Symmetry operations used in ECPInt.
 ECPInt:  NShTT=   31125 NPrTT=   97908 LenC2=   28079 LenP2D=   63697.
 LDataN:  DoStor=T MaxTD1= 6 Len=  172
 NBasis=   615 RedAO= T EigKep=  7.54D-06  NBF=   615
 NBsUse=   615 1.00D-06 EigRej= -1.00D+00 NBFU=   615
 ExpMin= 9.52D-02 ExpMax= 5.65D+05 ExpMxC= 5.46D+03 IAcc=3 IRadAn=         5 AccDes= 0.00D+00
 Harris functional with IExCor= 4639 and IRadAn=       5 diagonalized for initial guess.
 HarFok:  IExCor= 4639 AccDes= 0.00D+00 IRadAn=         5 IDoV= 1 UseB2=F ITyADJ=14
 ICtDFT=  3500011 ScaDFX=  1.000000  1.000000  1.000000  1.000000
 FoFCou: FMM=F IPFlag=           0 FMFlag=      100000 FMFlg1=           0
         NFxFlg=           0 DoJE=T BraDBF=F KetDBF=T FulRan=T
         wScrn=  0.000000 ICntrl=       500 IOpCl=  0 I1Cent=   200000004 NGrid=           0
         NMat0=    1 NMatS0=      1 NMatT0=    0 NMatD0=    1 NMtDS0=    0 NMtDT0=    0
 Petite list used in FoFCou.
 Requested convergence on RMS density matrix=1.00D-08 within 128 cycles.
 Requested convergence on MAX density matrix=1.00D-06.
 Requested convergence on             energy=1.00D-06.
 No special actions if energy rises.
 Inv3:  Mode=1 IEnd=    18362028.
 Iteration    1 A*A^-1 deviation from unit magnitude is 4.11D-15 for   2464.
 Iteration    1 A*A^-1 deviation from orthogonality  is 2.15D-15 for   2451    799.
 Iteration    1 A^-1*A deviation from unit magnitude is 4.11D-15 for   2464.
 Iteration    1 A^-1*A deviation from orthogonality  is 1.88D-15 for   1861    608.
 Error on total polarization charges =  0.01645
 SCF Done:  E(RwB97XD) =  -3226.45123696     A.U. after   14 cycles
            NFock= 14  Conv=0.96D-08     -V/T= 2.0021
 DoSCS=F DFT=T ScalE2(SS,OS)=  1.000000  1.000000
 Range of M.O.s used for correlation:     1   615
 NBasis=   615 NAE=    73 NBE=    73 NFC=     0 NFV=     0
 NROrb=    615 NOA=    73 NOB=    73 NVA=   542 NVB=   542

 **** Warning!!: The largest alpha MO coefficient is  0.54745400D+02

   1 Symmetry operations used in ECPInt.
 ECPInt:  NShTT=   31125 NPrTT=   97908 LenC2=   28079 LenP2D=   63697.
 LDataN:  DoStor=T MaxTD1= 7 Len=  274
 Number of processors reduced to  15 by ecpmxn.
 Symmetrizing basis deriv contribution to polar:
 IMax=3 JMax=2 DiffMx= 0.00D+00
 G2DrvN: will do    34 centers at a time, making    1 passes.
 Calling FoFCou, ICntrl=  3107 FMM=F I1Cent=   0 AccDes= 0.00D+00.
 NEqPCM:  Using equilibrium solvation (IEInf=0, Eps=  78.3553, EpsInf=   1.7778)
 G2PCM: DoFxE=T DoFxN=T DoGrad=T DoDP/DQ/DG/TGxP=FFFF NFrqRd=   0 IEInf=0 SqF1=F DoCFld=F IF1Alg=4.
 End of G2Drv F.D. properties file   721 does not exist.
 End of G2Drv F.D. properties file   722 does not exist.
 End of G2Drv F.D. properties file   788 does not exist.
          IDoAtm=111111111111111111111111111111111
 NEqPCM:  Using equilibrium solvation (IEInf=0, Eps=  78.3553, EpsInf=   1.7778)
          Differentiating once with respect to nuclear coordinates.
 CalDSu exits because no D1Ps are significant.
          There are   102 degrees of freedom in the 1st order CPHF.  IDoFFX=6 NUNeed=     0.
     96 vectors produced by pass  0 Test12= 3.96D-14 1.00D-09 XBig12= 1.27D-01 1.15D-01.
 AX will form    96 AO Fock derivatives at one time.
     96 vectors produced by pass  1 Test12= 3.96D-14 1.00D-09 XBig12= 3.31D-02 3.58D-02.
     96 vectors produced by pass  2 Test12= 3.96D-14 1.00D-09 XBig12= 9.52D-04 4.79D-03.
     96 vectors produced by pass  3 Test12= 3.96D-14 1.00D-09 XBig12= 1.54D-05 4.34D-04.
     96 vectors produced by pass  4 Test12= 3.96D-14 1.00D-09 XBig12= 1.80D-07 3.50D-05.
     96 vectors produced by pass  5 Test12= 3.96D-14 1.00D-09 XBig12= 1.52D-09 3.69D-06.
     96 vectors produced by pass  6 Test12= 3.96D-14 1.00D-09 XBig12= 1.06D-11 2.26D-07.
     42 vectors produced by pass  7 Test12= 3.96D-14 1.00D-09 XBig12= 7.24D-14 2.05D-08.
     12 vectors produced by pass  8 Test12= 3.96D-14 1.00D-09 XBig12= 6.86D-15 7.89D-09.
      6 vectors produced by pass  9 Test12= 3.96D-14 1.00D-09 XBig12= 3.58D-15 7.44D-09.
      3 vectors produced by pass 10 Test12= 3.96D-14 1.00D-09 XBig12= 7.52D-16 2.27D-09.
      2 vectors produced by pass 11 Test12= 3.96D-14 1.00D-09 XBig12= 2.36D-16 1.55D-09.
 InvSVY:  IOpt=1 It=  1 EMax= 5.00D-16
 Solved reduced A of dimension   737 with   102 vectors.
 End of Minotr F.D. properties file   721 does not exist.
 End of Minotr F.D. properties file   722 does not exist.
 End of Minotr F.D. properties file   788 does not exist.

 **********************************************************************

            Population analysis using the SCF density.

 **********************************************************************

 Orbital symmetries:
       Occupied  (A) (A) (A) (A) (A) (A) (A) (A) (A) (A) (A) (A)
                 (A) (A) (A) (A) (A) (A) (A) (A) (A) (A) (A) (A)
                 (A) (A) (A) (A) (A) (A) (A) (A) (A) (A) (A) (A)
                 (A) (A) (A) (A) (A) (A) (A) (A) (A) (A) (A) (A)
                 (A) (A) (A) (A) (A) (A) (A) (A) (A) (A) (A) (A)
                 (A) (A) (A) (A) (A) (A) (A) (A) (A) (A) (A) (A)
                 (A)
       Virtual   (A) (A) (A) (A) (A) (A) (A) (A) (A) (A) (A) (A)
                 (A) (A) (A) (A) (A) (A) (A) (A) (A) (A) (A) (A)
                 (A) (A) (A) (A) (A) (A) (A) (A) (A) (A) (A) (A)
                 (A) (A) (A) (A) (A) (A) (A) (A) (A) (A) (A) (A)
                 (A) (A) (A) (A) (A) (A) (A) (A) (A) (A) (A) (A)
                 (A) (A) (A) (A) (A) (A) (A) (A) (A) (A) (A) (A)
                 (A) (A) (A) (A) (A) (A) (A) (A) (A) (A) (A) (A)
                 (A) (A) (A) (A) (A) (A) (A) (A) (A) (A) (A) (A)
                 (A) (A) (A) (A) (A) (A) (A) (A) (A) (A) (A) (A)
                 (A) (A) (A) (A) (A) (A) (A) (A) (A) (A) (A) (A)
                 (A) (A) (A) (A) (A) (A) (A) (A) (A) (A) (A) (A)
                 (A) (A) (A) (A) (A) (A) (A) (A) (A) (A) (A) (A)
                 (A) (A) (A) (A) (A) (A) (A) (A) (A) (A) (A) (A)
                 (A) (A) (A) (A) (A) (A) (A) (A) (A) (A) (A) (A)
                 (A) (A) (A) (A) (A) (A) (A) (A) (A) (A) (A) (A)
                 (A) (A) (A) (A) (A) (A) (A) (A) (A) (A) (A) (A)
                 (A) (A) (A) (A) (A) (A) (A) (A) (A) (A) (A) (A)
                 (A) (A) (A) (A) (A) (A) (A) (A) (A) (A) (A) (A)
                 (A) (A) (A) (A) (A) (A) (A) (A) (A) (A) (A) (A)
                 (A) (A) (A) (A) (A) (A) (A) (A) (A) (A) (A) (A)
                 (A) (A) (A) (A) (A) (A) (A) (A) (A) (A) (A) (A)
                 (A) (A) (A) (A) (A) (A) (A) (A) (A) (A) (A) (A)
                 (A) (A) (A) (A) (A) (A) (A) (A) (A) (A) (A) (A)
                 (A) (A) (A) (A) (A) (A) (A) (A) (A) (A) (A) (A)
                 (A) (A) (A) (A) (A) (A) (A) (A) (A) (A) (A) (A)
                 (A) (A) (A) (A) (A) (A) (A) (A) (A) (A) (A) (A)
                 (A) (A) (A) (A) (A) (A) (A) (A) (A) (A) (A) (A)
                 (A) (A) (A) (A) (A) (A) (A) (A) (A) (A) (A) (A)
                 (A) (A) (A) (A) (A) (A) (A) (A) (A) (A) (A) (A)
                 (A) (A) (A) (A) (A) (A) (A) (A) (A) (A) (A) (A)
                 (A) (A) (A) (A) (A) (A) (A) (A) (A) (A) (A) (A)
                 (A) (A) (A) (A) (A) (A) (A) (A) (A) (A) (A) (A)
                 (A) (A) (A) (A) (A) (A) (A) (A) (A) (A) (A) (A)
                 (A) (A) (A) (A) (A) (A) (A) (A) (A) (A) (A) (A)
                 (A) (A) (A) (A) (A) (A) (A) (A) (A) (A) (A) (A)
                 (A) (A) (A) (A) (A) (A) (A) (A) (A) (A) (A) (A)
                 (A) (A) (A) (A) (A) (A) (A) (A) (A) (A) (A) (A)
                 (A) (A) (A) (A) (A) (A) (A) (A) (A) (A) (A) (A)
                 (A) (A) (A) (A) (A) (A) (A) (A) (A) (A) (A) (A)
                 (A) (A) (A) (A) (A) (A) (A) (A) (A) (A) (A) (A)
                 (A) (A) (A) (A) (A) (A) (A) (A) (A) (A) (A) (A)
                 (A) (A) (A) (A) (A) (A) (A) (A) (A) (A) (A) (A)
                 (A) (A) (A) (A) (A) (A) (A) (A) (A) (A) (A) (A)
                 (A) (A) (A) (A) (A) (A) (A) (A) (A) (A) (A) (A)
                 (A) (A) (A) (A) (A) (A) (A) (A) (A) (A) (A) (A)
                 (A) (A)
 The electronic state is 1-A.
 Alpha  occ. eigenvalues -- -483.11663 -62.66487 -56.45588 -56.45259 -56.45254
 Alpha  occ. eigenvalues --  -19.20378 -14.47420 -14.45304 -10.37717 -10.34110
 Alpha  occ. eigenvalues --  -10.31537 -10.30650 -10.30529 -10.30269 -10.29609
 Alpha  occ. eigenvalues --  -10.29379 -10.29367 -10.29247 -10.29221 -10.29149
 Alpha  occ. eigenvalues --   -8.80593  -6.62689  -6.61636  -6.61622  -2.73087
 Alpha  occ. eigenvalues --   -2.72779  -2.72767  -2.71915  -2.71915  -1.12914
 Alpha  occ. eigenvalues --   -1.03335  -1.02634  -0.97307  -0.92003  -0.87176
 Alpha  occ. eigenvalues --   -0.85438  -0.82282  -0.81321  -0.79446  -0.78051
 Alpha  occ. eigenvalues --   -0.72370  -0.70900  -0.67292  -0.63464  -0.62396
 Alpha  occ. eigenvalues --   -0.60030  -0.58557  -0.56511  -0.56020  -0.55873
 Alpha  occ. eigenvalues --   -0.55031  -0.54586  -0.52651  -0.51444  -0.51104
 Alpha  occ. eigenvalues --   -0.49945  -0.48335  -0.47913  -0.47851  -0.47027
 Alpha  occ. eigenvalues --   -0.46825  -0.45925  -0.44547  -0.43872  -0.42910
 Alpha  occ. eigenvalues --   -0.42313  -0.38283  -0.37216  -0.34517  -0.33745
 Alpha  occ. eigenvalues --   -0.33475  -0.31592  -0.26040
 Alpha virt. eigenvalues --    0.03485   0.05021   0.06889   0.09126   0.11154
 Alpha virt. eigenvalues --    0.12329   0.13204   0.13646   0.14961   0.15787
 Alpha virt. eigenvalues --    0.15902   0.17199   0.17552   0.17629   0.18174
 Alpha virt. eigenvalues --    0.18799   0.19074   0.19700   0.19917   0.20831
 Alpha virt. eigenvalues --    0.20974   0.21386   0.21722   0.23072   0.23524
 Alpha virt. eigenvalues --    0.24586   0.24931   0.25589   0.25960   0.26379
 Alpha virt. eigenvalues --    0.27329   0.27944   0.28856   0.29272   0.29686
 Alpha virt. eigenvalues --    0.30226   0.30970   0.31491   0.32029   0.32307
 Alpha virt. eigenvalues --    0.33082   0.33177   0.33582   0.34497   0.35214
 Alpha virt. eigenvalues --    0.35857   0.36633   0.37299   0.37869   0.38602
 Alpha virt. eigenvalues --    0.39799   0.40467   0.40593   0.41043   0.41706
 Alpha virt. eigenvalues --    0.42467   0.43142   0.43775   0.44097   0.44563
 Alpha virt. eigenvalues --    0.44673   0.45057   0.45808   0.46015   0.47461
 Alpha virt. eigenvalues --    0.48127   0.48700   0.48943   0.49534   0.49946
 Alpha virt. eigenvalues --    0.50401   0.50484   0.51879   0.51975   0.52465
 Alpha virt. eigenvalues --    0.52833   0.53260   0.53591   0.54559   0.54944
 Alpha virt. eigenvalues --    0.55074   0.55907   0.56301   0.57032   0.57459
 Alpha virt. eigenvalues --    0.58107   0.58280   0.58869   0.59141   0.59659
 Alpha virt. eigenvalues --    0.60046   0.61059   0.61302   0.62333   0.63317
 Alpha virt. eigenvalues --    0.64014   0.64573   0.65744   0.66927   0.67662
 Alpha virt. eigenvalues --    0.68592   0.69440   0.69576   0.71256   0.71868
 Alpha virt. eigenvalues --    0.72523   0.72836   0.73840   0.74915   0.75420
 Alpha virt. eigenvalues --    0.76263   0.77755   0.78470   0.79182   0.79788
 Alpha virt. eigenvalues --    0.80940   0.81876   0.82813   0.83941   0.84862
 Alpha virt. eigenvalues --    0.85724   0.87024   0.87585   0.88579   0.89503
 Alpha virt. eigenvalues --    0.90334   0.91503   0.93275   0.94106   0.94201
 Alpha virt. eigenvalues --    0.95561   0.96838   0.97459   0.98108   0.98414
 Alpha virt. eigenvalues --    0.99835   1.00990   1.01820   1.02200   1.02922
 Alpha virt. eigenvalues --    1.04135   1.07550   1.07872   1.08606   1.08912
 Alpha virt. eigenvalues --    1.09607   1.10461   1.12256   1.12771   1.14752
 Alpha virt. eigenvalues --    1.14905   1.15514   1.16147   1.17536   1.18264
 Alpha virt. eigenvalues --    1.18689   1.19368   1.20973   1.23859   1.24655
 Alpha virt. eigenvalues --    1.25477   1.27261   1.28055   1.29420   1.30665
 Alpha virt. eigenvalues --    1.32024   1.32117   1.33304   1.34445   1.34892
 Alpha virt. eigenvalues --    1.35609   1.36674   1.38625   1.39588   1.39912
 Alpha virt. eigenvalues --    1.42860   1.43487   1.45061   1.47971   1.49106
 Alpha virt. eigenvalues --    1.49758   1.50658   1.51500   1.52425   1.53154
 Alpha virt. eigenvalues --    1.53522   1.53918   1.54565   1.55130   1.55976
 Alpha virt. eigenvalues --    1.56207   1.57763   1.58307   1.59190   1.60104
 Alpha virt. eigenvalues --    1.60659   1.61196   1.61620   1.62029   1.62808
 Alpha virt. eigenvalues --    1.63302   1.63827   1.64404   1.65436   1.65881
 Alpha virt. eigenvalues --    1.66495   1.66972   1.66988   1.68013   1.68622
 Alpha virt. eigenvalues --    1.69722   1.71440   1.71671   1.72526   1.73230
 Alpha virt. eigenvalues --    1.73909   1.74151   1.75466   1.76499   1.76958
 Alpha virt. eigenvalues --    1.78017   1.78119   1.78817   1.80107   1.80353
 Alpha virt. eigenvalues --    1.80526   1.81195   1.81970   1.82802   1.84392
 Alpha virt. eigenvalues --    1.85426   1.87181   1.88502   1.88800   1.91318
 Alpha virt. eigenvalues --    1.91701   1.91907   1.93343   1.94744   1.95109
 Alpha virt. eigenvalues --    1.96160   1.97015   1.98740   2.00239   2.00660
 Alpha virt. eigenvalues --    2.01578   2.02840   2.04162   2.05739   2.06104
 Alpha virt. eigenvalues --    2.07676   2.09195   2.09634   2.11516   2.12737
 Alpha virt. eigenvalues --    2.13441   2.14321   2.15337   2.16110   2.17426
 Alpha virt. eigenvalues --    2.18505   2.20556   2.21031   2.21647   2.23461
 Alpha virt. eigenvalues --    2.25103   2.25810   2.26630   2.27881   2.29258
 Alpha virt. eigenvalues --    2.31444   2.32313   2.32921   2.34754   2.35932
 Alpha virt. eigenvalues --    2.36851   2.36951   2.40618   2.41336   2.42081
 Alpha virt. eigenvalues --    2.43443   2.44295   2.45520   2.45827   2.47880
 Alpha virt. eigenvalues --    2.47987   2.49403   2.51335   2.52458   2.53236
 Alpha virt. eigenvalues --    2.53889   2.54529   2.57073   2.57837   2.59485
 Alpha virt. eigenvalues --    2.60009   2.61325   2.61822   2.62095   2.64055
 Alpha virt. eigenvalues --    2.65482   2.65679   2.65839   2.67268   2.68895
 Alpha virt. eigenvalues --    2.69643   2.71090   2.71711   2.72644   2.73241
 Alpha virt. eigenvalues --    2.74432   2.74903   2.75886   2.76605   2.76840
 Alpha virt. eigenvalues --    2.78012   2.78603   2.79513   2.80572   2.80874
 Alpha virt. eigenvalues --    2.82526   2.83286   2.85180   2.86084   2.86696
 Alpha virt. eigenvalues --    2.87701   2.88071   2.88886   2.90481   2.90979
 Alpha virt. eigenvalues --    2.92311   2.92863   2.93441   2.94154   2.94939
 Alpha virt. eigenvalues --    2.95701   2.96618   3.00239   3.00652   3.01701
 Alpha virt. eigenvalues --    3.04203   3.06367   3.06475   3.07545   3.09945
 Alpha virt. eigenvalues --    3.10829   3.11403   3.11993   3.13432   3.14068
 Alpha virt. eigenvalues --    3.14854   3.15295   3.16499   3.17842   3.19459
 Alpha virt. eigenvalues --    3.21210   3.21838   3.22854   3.23036   3.24055
 Alpha virt. eigenvalues --    3.24737   3.25787   3.26998   3.27134   3.28323
 Alpha virt. eigenvalues --    3.28543   3.29253   3.29921   3.30196   3.30914
 Alpha virt. eigenvalues --    3.32366   3.33607   3.34771   3.35013   3.35939
 Alpha virt. eigenvalues --    3.36117   3.38379   3.38928   3.39288   3.40409
 Alpha virt. eigenvalues --    3.41280   3.42036   3.42715   3.43122   3.44154
 Alpha virt. eigenvalues --    3.44240   3.45822   3.47854   3.48212   3.48721
 Alpha virt. eigenvalues --    3.50121   3.50381   3.51461   3.52317   3.54302
 Alpha virt. eigenvalues --    3.55234   3.56167   3.57029   3.57919   3.58517
 Alpha virt. eigenvalues --    3.59102   3.60325   3.61598   3.62175   3.62806
 Alpha virt. eigenvalues --    3.64517   3.65073   3.65680   3.66176   3.69284
 Alpha virt. eigenvalues --    3.69609   3.70404   3.71393   3.71957   3.74731
 Alpha virt. eigenvalues --    3.77143   3.78546   3.78800   3.80957   3.82043
 Alpha virt. eigenvalues --    3.82474   3.83597   3.87310   3.89150   3.90694
 Alpha virt. eigenvalues --    3.91181   3.94267   3.96371   3.98141   3.99501
 Alpha virt. eigenvalues --    4.02687   4.04644   4.05660   4.07244   4.11429
 Alpha virt. eigenvalues --    4.11955   4.14245   4.16201   4.17402   4.19178
 Alpha virt. eigenvalues --    4.20157   4.21591   4.22896   4.23416   4.25039
 Alpha virt. eigenvalues --    4.26971   4.28889   4.29561   4.30381   4.30675
 Alpha virt. eigenvalues --    4.31401   4.32889   4.34214   4.34700   4.34862
 Alpha virt. eigenvalues --    4.37376   4.38582   4.39414   4.40573   4.41413
 Alpha virt. eigenvalues --    4.43931   4.45186   4.47055   4.48800   4.49185
 Alpha virt. eigenvalues --    4.53538   4.54134   4.56238   4.57399   4.59653
 Alpha virt. eigenvalues --    4.61378   4.67480   4.71522   4.73891   4.78905
 Alpha virt. eigenvalues --    4.80342   4.81139   4.84369   4.87259   4.90884
 Alpha virt. eigenvalues --    4.97384   4.97619   4.99745   5.00644   5.02123
 Alpha virt. eigenvalues --    5.06539   5.07766   5.08720   5.11798   5.13803
 Alpha virt. eigenvalues --    5.15924   5.19085   5.21751   5.22917   5.24361
 Alpha virt. eigenvalues --    5.27316   5.31414   5.31975   5.34213   5.35621
 Alpha virt. eigenvalues --    5.36749   5.39752   5.40305   5.43702   5.45440
 Alpha virt. eigenvalues --    5.50507   5.51480   5.56193   5.59210   5.62959
 Alpha virt. eigenvalues --    5.65491   5.70457   5.76011   5.77036   5.80494
 Alpha virt. eigenvalues --    5.88852   5.94391   6.06832   6.20622   6.40432
 Alpha virt. eigenvalues --    6.56421   6.72890   6.80455   6.94604   7.17664
 Alpha virt. eigenvalues --    7.25488   7.83389  22.20607  22.49878  22.54065
 Alpha virt. eigenvalues --   22.58176  22.60934  22.72718  22.73860  22.89097
 Alpha virt. eigenvalues --   22.93755  22.99366  23.37820  23.51052  32.21253
 Alpha virt. eigenvalues --   32.90159  44.13825
          Condensed to atoms (all electrons):
               1          2          3          4          5          6
     1  C    5.949351   0.195388  -0.138802   0.240670   0.001699   0.000890
     2  C    0.195388   4.679575   0.522204  -0.038959   0.001669  -0.000245
     3  O   -0.138802   0.522204   8.227597   0.007816   0.000156  -0.000084
     4  C    0.240670  -0.038959   0.007816   5.686312  -0.004521  -0.018832
     5  C    0.001699   0.001669   0.000156  -0.004521   4.841927   0.419183
     6  H    0.000890  -0.000245  -0.000084  -0.018832   0.419183   0.513554
     7  H   -0.000363  -0.000057   0.000010   0.001921   0.409937  -0.022025
     8  H   -0.001151   0.000871   0.000473   0.013024   0.415745  -0.023232
     9  N   -0.030405  -0.004166  -0.020428   0.014508   0.234803  -0.035015
    10  H    0.007037  -0.015581   0.038489  -0.042291  -0.020288   0.005675
    11  H    0.001079   0.002528   0.000320   0.004176  -0.021154  -0.005794
    12  C   -0.026279  -0.008210   0.010912   0.019899   0.013329   0.015366
    13  C   -0.012467   0.003941   0.000280  -0.109542  -0.009491  -0.001966
    14  C    0.002407  -0.000080   0.000003   0.002282  -0.000098  -0.000070
    15  C    0.000211   0.000065  -0.000000  -0.002914  -0.000565   0.000003
    16  C    0.001759  -0.000325  -0.000003   0.001707   0.000943   0.000423
    17  C    0.019511  -0.000193  -0.000721  -0.090345  -0.002247  -0.000806
    18  H   -0.003600   0.000591   0.000022  -0.001302  -0.000884   0.000231
    19  H   -0.000024  -0.000003   0.000000  -0.000124   0.000019   0.000016
    20  H    0.000001   0.000000   0.000000   0.000031   0.000001  -0.000000
    21  H   -0.000055  -0.000001   0.000000  -0.000484   0.000006   0.000007
    22  H    0.001729  -0.000094  -0.000019  -0.002270  -0.000275   0.000002
    23  H   -0.069449   0.000934   0.014546   0.480787  -0.000810   0.000352
    24  Br   0.237081  -0.041893   0.005973  -0.068852  -0.000241   0.000004
    25  N   -0.134965   0.500816  -0.103718   0.012320   0.000028  -0.000001
    26  C   -0.003196  -0.067261   0.003528   0.001146   0.000005   0.000000
    27  C    0.007163  -0.059897  -0.000996   0.000618   0.000006   0.000000
    28  H    0.011935  -0.012891   0.000478   0.001711  -0.000002   0.000000
    29  H   -0.005632   0.006324   0.000225   0.000496  -0.000000  -0.000000
    30  H    0.002046   0.000480  -0.000255  -0.000580  -0.000000  -0.000000
    31  H    0.004496  -0.015754   0.011175  -0.000777  -0.000006  -0.000000
    32  H    0.002984   0.005047   0.001849  -0.000070  -0.000000   0.000000
    33  H   -0.004010  -0.001327   0.001403   0.000196   0.000000  -0.000000
               7          8          9         10         11         12
     1  C   -0.000363  -0.001151  -0.030405   0.007037   0.001079  -0.026279
     2  C   -0.000057   0.000871  -0.004166  -0.015581   0.002528  -0.008210
     3  O    0.000010   0.000473  -0.020428   0.038489   0.000320   0.010912
     4  C    0.001921   0.013024   0.014508  -0.042291   0.004176   0.019899
     5  C    0.409937   0.415745   0.234803  -0.020288  -0.021154   0.013329
     6  H   -0.022025  -0.023232  -0.035015   0.005675  -0.005794   0.015366
     7  H    0.513258  -0.022155  -0.023847  -0.004665  -0.004452  -0.000497
     8  H   -0.022155   0.517854  -0.043508  -0.004903   0.006301  -0.007655
     9  N   -0.023847  -0.043508   6.578355   0.358609   0.348113  -0.063965
    10  H   -0.004665  -0.004903   0.358609   0.414687  -0.020525   0.015440
    11  H   -0.004452   0.006301   0.348113  -0.020525   0.422152  -0.011560
    12  C   -0.000497  -0.007655  -0.063965   0.015440  -0.011560   5.324486
    13  C    0.000434  -0.000400   0.024409  -0.000897   0.002094   0.291525
    14  C    0.000023   0.000033   0.004310  -0.000074  -0.000119   0.001802
    15  C    0.000002  -0.000025   0.000195  -0.000010   0.000026  -0.099905
    16  C   -0.000008  -0.000162   0.000150   0.000054  -0.000101   0.024803
    17  C    0.000198  -0.000787   0.009509  -0.000212   0.000184   0.365672
    18  H    0.000150  -0.000194   0.004266   0.000237  -0.000376  -0.083970
    19  H   -0.000001   0.000003  -0.000020  -0.000000   0.000006   0.013431
    20  H   -0.000000   0.000000  -0.000002   0.000000   0.000000  -0.003799
    21  H   -0.000000  -0.000003   0.000001   0.000000  -0.000001   0.015136
    22  H    0.000005   0.000036   0.000531  -0.000001   0.000005  -0.069143
    23  H   -0.000340   0.002193  -0.045796  -0.005315   0.002909  -0.057795
    24  Br   0.000036  -0.000020   0.003200   0.000557   0.001055  -0.006258
    25  N   -0.000001   0.000013  -0.000714   0.000458   0.000051   0.000270
    26  C   -0.000000   0.000001  -0.000158  -0.000039   0.000018  -0.000585
    27  C   -0.000000  -0.000001   0.000045  -0.000447   0.000004  -0.000010
    28  H    0.000000  -0.000001   0.000082  -0.000031  -0.000005   0.000015
    29  H    0.000000  -0.000000   0.000007  -0.000006  -0.000001   0.000049
    30  H   -0.000000   0.000000  -0.000008   0.000020   0.000001  -0.000016
    31  H    0.000000   0.000000  -0.000039   0.000251   0.000001  -0.000030
    32  H   -0.000000   0.000000  -0.000004   0.000004   0.000000  -0.000006
    33  H    0.000000  -0.000000   0.000016  -0.000038  -0.000001   0.000010
              13         14         15         16         17         18
     1  C   -0.012467   0.002407   0.000211   0.001759   0.019511  -0.003600
     2  C    0.003941  -0.000080   0.000065  -0.000325  -0.000193   0.000591
     3  O    0.000280   0.000003  -0.000000  -0.000003  -0.000721   0.000022
     4  C   -0.109542   0.002282  -0.002914   0.001707  -0.090345  -0.001302
     5  C   -0.009491  -0.000098  -0.000565   0.000943  -0.002247  -0.000884
     6  H   -0.001966  -0.000070   0.000003   0.000423  -0.000806   0.000231
     7  H    0.000434   0.000023   0.000002  -0.000008   0.000198   0.000150
     8  H   -0.000400   0.000033  -0.000025  -0.000162  -0.000787  -0.000194
     9  N    0.024409   0.004310   0.000195   0.000150   0.009509   0.004266
    10  H   -0.000897  -0.000074  -0.000010   0.000054  -0.000212   0.000237
    11  H    0.002094  -0.000119   0.000026  -0.000101   0.000184  -0.000376
    12  C    0.291525   0.001802  -0.099905   0.024803   0.365672  -0.083970
    13  C    5.314015   0.399818   0.040257  -0.085361   0.045581   0.455537
    14  C    0.399818   4.961787   0.414384   0.015248  -0.061548  -0.022382
    15  C    0.040257   0.414384   5.004285   0.407113   0.031603   0.008972
    16  C   -0.085361   0.015248   0.407113   4.998720   0.415276  -0.002741
    17  C    0.045581  -0.061548   0.031603   0.415276   5.114958   0.007455
    18  H    0.455537  -0.022382   0.008972  -0.002741   0.007455   0.486441
    19  H   -0.057495   0.452693  -0.055893   0.010660  -0.003648  -0.006383
    20  H    0.012560  -0.057133   0.452984  -0.056913   0.011078  -0.000080
    21  H   -0.004641   0.011898  -0.058481   0.459401  -0.063248   0.000015
    22  H    0.014401  -0.004357   0.011011  -0.053366   0.457094   0.000018
    23  H    0.003655  -0.000407   0.000036   0.000126  -0.003735  -0.000308
    24  Br  -0.012994   0.005622  -0.000621   0.000829   0.001928   0.003333
    25  N    0.000023  -0.000000  -0.000000   0.000001  -0.000064   0.000004
    26  C   -0.000088  -0.000005   0.000001  -0.000004   0.000013  -0.000008
    27  C    0.000002  -0.000000   0.000000  -0.000000  -0.000002   0.000000
    28  H    0.000069  -0.000005   0.000004  -0.000008   0.000178   0.000011
    29  H    0.000005  -0.000000   0.000000  -0.000000  -0.000004   0.000000
    30  H   -0.000004   0.000000  -0.000000   0.000000  -0.000001  -0.000000
    31  H   -0.000001   0.000000  -0.000000   0.000000   0.000002  -0.000000
    32  H   -0.000000  -0.000000  -0.000000   0.000000   0.000000  -0.000000
    33  H    0.000001  -0.000000   0.000000  -0.000000   0.000000   0.000000
              19         20         21         22         23         24
     1  C   -0.000024   0.000001  -0.000055   0.001729  -0.069449   0.237081
     2  C   -0.000003   0.000000  -0.000001  -0.000094   0.000934  -0.041893
     3  O    0.000000   0.000000   0.000000  -0.000019   0.014546   0.005973
     4  C   -0.000124   0.000031  -0.000484  -0.002270   0.480787  -0.068852
     5  C    0.000019   0.000001   0.000006  -0.000275  -0.000810  -0.000241
     6  H    0.000016  -0.000000   0.000007   0.000002   0.000352   0.000004
     7  H   -0.000001  -0.000000  -0.000000   0.000005  -0.000340   0.000036
     8  H    0.000003   0.000000  -0.000003   0.000036   0.002193  -0.000020
     9  N   -0.000020  -0.000002   0.000001   0.000531  -0.045796   0.003200
    10  H   -0.000000   0.000000   0.000000  -0.000001  -0.005315   0.000557
    11  H    0.000006   0.000000  -0.000001   0.000005   0.002909   0.001055
    12  C    0.013431  -0.003799   0.015136  -0.069143  -0.057795  -0.006258
    13  C   -0.057495   0.012560  -0.004641   0.014401   0.003655  -0.012994
    14  C    0.452693  -0.057133   0.011898  -0.004357  -0.000407   0.005622
    15  C   -0.055893   0.452984  -0.058481   0.011011   0.000036  -0.000621
    16  C    0.010660  -0.056913   0.459401  -0.053366   0.000126   0.000829
    17  C   -0.003648   0.011078  -0.063248   0.457094  -0.003735   0.001928
    18  H   -0.006383  -0.000080   0.000015   0.000018  -0.000308   0.003333
    19  H    0.508736  -0.006586  -0.000048   0.000019   0.000009  -0.000001
    20  H   -0.006586   0.509080  -0.006689  -0.000058   0.000000  -0.000000
    21  H   -0.000048  -0.006689   0.509902  -0.006878  -0.000011   0.000008
    22  H    0.000019  -0.000058  -0.006878   0.505888   0.001262  -0.000096
    23  H    0.000009   0.000000  -0.000011   0.001262   0.505330   0.007834
    24  Br  -0.000001  -0.000000   0.000008  -0.000096   0.007834  35.054996
    25  N    0.000000   0.000000   0.000000  -0.000011   0.001090   0.001148
    26  C   -0.000000   0.000000  -0.000000  -0.000007   0.000068  -0.011642
    27  C   -0.000000   0.000000  -0.000000  -0.000001   0.000131   0.000242
    28  H   -0.000000   0.000000  -0.000000   0.000023  -0.000048  -0.012481
    29  H   -0.000000   0.000000   0.000000   0.000001   0.000007   0.001735
    30  H    0.000000  -0.000000   0.000000  -0.000000  -0.000013   0.001501
    31  H   -0.000000  -0.000000  -0.000000   0.000000  -0.000092  -0.000173
    32  H    0.000000  -0.000000   0.000000  -0.000000  -0.000002  -0.000130
    33  H   -0.000000   0.000000  -0.000000   0.000000   0.000014  -0.000074
              25         26         27         28         29         30
     1  C   -0.134965  -0.003196   0.007163   0.011935  -0.005632   0.002046
     2  C    0.500816  -0.067261  -0.059897  -0.012891   0.006324   0.000480
     3  O   -0.103718   0.003528  -0.000996   0.000478   0.000225  -0.000255
     4  C    0.012320   0.001146   0.000618   0.001711   0.000496  -0.000580
     5  C    0.000028   0.000005   0.000006  -0.000002  -0.000000  -0.000000
     6  H   -0.000001   0.000000   0.000000   0.000000  -0.000000  -0.000000
     7  H   -0.000001  -0.000000  -0.000000   0.000000   0.000000  -0.000000
     8  H    0.000013   0.000001  -0.000001  -0.000001  -0.000000   0.000000
     9  N   -0.000714  -0.000158   0.000045   0.000082   0.000007  -0.000008
    10  H    0.000458  -0.000039  -0.000447  -0.000031  -0.000006   0.000020
    11  H    0.000051   0.000018   0.000004  -0.000005  -0.000001   0.000001
    12  C    0.000270  -0.000585  -0.000010   0.000015   0.000049  -0.000016
    13  C    0.000023  -0.000088   0.000002   0.000069   0.000005  -0.000004
    14  C   -0.000000  -0.000005  -0.000000  -0.000005  -0.000000   0.000000
    15  C   -0.000000   0.000001   0.000000   0.000004   0.000000  -0.000000
    16  C    0.000001  -0.000004  -0.000000  -0.000008  -0.000000   0.000000
    17  C   -0.000064   0.000013  -0.000002   0.000178  -0.000004  -0.000001
    18  H    0.000004  -0.000008   0.000000   0.000011   0.000000  -0.000000
    19  H    0.000000  -0.000000  -0.000000  -0.000000  -0.000000   0.000000
    20  H    0.000000   0.000000   0.000000   0.000000   0.000000  -0.000000
    21  H    0.000000  -0.000000  -0.000000  -0.000000   0.000000   0.000000
    22  H   -0.000011  -0.000007  -0.000001   0.000023   0.000001  -0.000000
    23  H    0.001090   0.000068   0.000131  -0.000048   0.000007  -0.000013
    24  Br   0.001148  -0.011642   0.000242  -0.012481   0.001735   0.001501
    25  N    6.558457   0.263278   0.272035  -0.034335  -0.039905  -0.050353
    26  C    0.263278   4.916463  -0.044149   0.414824   0.393861   0.430980
    27  C    0.272035  -0.044149   4.881406   0.006329   0.000900  -0.006776
    28  H   -0.034335   0.414824   0.006329   0.511119  -0.012953  -0.029131
    29  H   -0.039905   0.393861   0.000900  -0.012953   0.555831  -0.035830
    30  H   -0.050353   0.430980  -0.006776  -0.029131  -0.035830   0.545330
    31  H   -0.032082   0.008264   0.403054  -0.000491  -0.000530   0.000701
    32  H   -0.043447  -0.003287   0.404062   0.000106  -0.007216   0.004168
    33  H   -0.045033  -0.008010   0.430712   0.000624   0.006771  -0.001420
              31         32         33
     1  C    0.004496   0.002984  -0.004010
     2  C   -0.015754   0.005047  -0.001327
     3  O    0.011175   0.001849   0.001403
     4  C   -0.000777  -0.000070   0.000196
     5  C   -0.000006  -0.000000   0.000000
     6  H   -0.000000   0.000000  -0.000000
     7  H    0.000000  -0.000000   0.000000
     8  H    0.000000   0.000000  -0.000000
     9  N   -0.000039  -0.000004   0.000016
    10  H    0.000251   0.000004  -0.000038
    11  H    0.000001   0.000000  -0.000001
    12  C   -0.000030  -0.000006   0.000010
    13  C   -0.000001  -0.000000   0.000001
    14  C    0.000000  -0.000000  -0.000000
    15  C   -0.000000  -0.000000   0.000000
    16  C    0.000000   0.000000  -0.000000
    17  C    0.000002   0.000000   0.000000
    18  H   -0.000000  -0.000000   0.000000
    19  H   -0.000000   0.000000  -0.000000
    20  H   -0.000000  -0.000000   0.000000
    21  H   -0.000000   0.000000  -0.000000
    22  H    0.000000  -0.000000   0.000000
    23  H   -0.000092  -0.000002   0.000014
    24  Br  -0.000173  -0.000130  -0.000074
    25  N   -0.032082  -0.043447  -0.045033
    26  C    0.008264  -0.003287  -0.008010
    27  C    0.403054   0.404062   0.430712
    28  H   -0.000491   0.000106   0.000624
    29  H   -0.000530  -0.007216   0.006771
    30  H    0.000701   0.004168  -0.001420
    31  H    0.530783  -0.014160  -0.032168
    32  H   -0.014160   0.548594  -0.037077
    33  H   -0.032168  -0.037077   0.557999
 Mulliken charges:
               1
     1  C   -0.257039
     2  C    0.346504
     3  O   -0.582431
     4  C   -0.107757
     5  C   -0.278875
     6  H    0.152364
     7  H    0.152436
     8  H    0.147649
     9  N   -0.313037
    10  H    0.273805
    11  H    0.273062
    12  C    0.327535
    13  C   -0.313256
    14  C   -0.126029
    15  C   -0.152738
    16  C   -0.138224
    17  C   -0.252678
    18  H    0.154942
    19  H    0.144634
    20  H    0.145525
    21  H    0.144164
    22  H    0.144548
    23  H    0.162835
    24  Br  -0.171605
    25  N   -0.125362
    26  C   -0.294013
    27  C   -0.294432
    28  H    0.154873
    29  H    0.135866
    30  H    0.139160
    31  H    0.137576
    32  H    0.138586
    33  H    0.131413
 Sum of Mulliken charges =  -0.00000
 Mulliken charges with hydrogens summed into heavy atoms:
               1
     1  C   -0.257039
     2  C    0.346504
     3  O   -0.582431
     4  C    0.055078
     5  C    0.173574
     9  N    0.233830
    12  C    0.327535
    13  C   -0.158314
    14  C    0.018605
    15  C   -0.007213
    16  C    0.005940
    17  C   -0.108130
    24  Br  -0.171605
    25  N   -0.125362
    26  C    0.135886
    27  C    0.113142
 APT charges:
               1
     1  C   -0.442601
     2  C   -0.167082
     3  O   -0.280999
     4  C   -0.232594
     5  C   -1.329032
     6  H    0.342610
     7  H    0.726875
     8  H    0.351169
     9  N   -0.522536
    10  H    0.441703
    11  H    0.439393
    12  C   -0.262690
    13  C   -0.594997
    14  C   -0.591530
    15  C   -0.636487
    16  C   -0.639613
    17  C   -0.542274
    18  H    0.223185
    19  H    0.726824
    20  H    1.047165
    21  H    0.854455
    22  H    0.353024
    23  H    0.426559
    24  Br  -0.028413
    25  N    0.236025
    26  C   -1.034101
    27  C   -1.508915
    28  H   -0.040398
    29  H    0.692030
    30  H    0.464511
    31  H    0.307840
    32  H    0.680529
    33  H    0.540364
 Sum of APT charges =  -0.00000
 APT charges with hydrogens summed into heavy atoms:
               1
     1  C   -0.442601
     2  C   -0.167082
     3  O   -0.280999
     4  C    0.193965
     5  C    0.091622
     9  N    0.358560
    12  C   -0.262690
    13  C   -0.371812
    14  C    0.135294
    15  C    0.410679
    16  C    0.214842
    17  C   -0.189250
    24  Br  -0.028413
    25  N    0.236025
    26  C    0.082043
    27  C    0.019818
 Electronic spatial extent (au):  <R**2>=           4983.9587
 Charge=             -0.0000 electrons
 Dipole moment (field-independent basis, Debye):
    X=              3.2518    Y=              2.2854    Z=             -1.3180  Tot=              4.1874
 Quadrupole moment (field-independent basis, Debye-Ang):
   XX=            -95.0067   YY=           -108.8476   ZZ=            -99.5861
   XY=              8.6173   XZ=             -3.3746   YZ=             -6.1342
 Traceless Quadrupole moment (field-independent basis, Debye-Ang):
   XX=              6.1401   YY=             -7.7008   ZZ=              1.5607
   XY=              8.6173   XZ=             -3.3746   YZ=             -6.1342
 Octapole moment (field-independent basis, Debye-Ang**2):
  XXX=            -40.8081  YYY=            -14.4604  ZZZ=            -30.1710  XYY=             11.2824
  XXY=            -42.9494  XXZ=              4.9653  XZZ=              3.6089  YZZ=             -0.3274
  YYZ=            -28.0025  XYZ=              5.9223
 Hexadecapole moment (field-independent basis, Debye-Ang**3):
 XXXX=          -4022.6245 YYYY=          -1304.3239 ZZZZ=           -656.3863 XXXY=            -41.0435
 XXXZ=              5.2997 YYYX=            124.4626 YYYZ=             -5.4302 ZZZX=             16.9527
 ZZZY=             24.3635 XXYY=           -992.1583 XXZZ=           -792.3987 YYZZ=           -319.5165
 XXYZ=             -3.9575 YYXZ=            -12.5537 ZZXY=             16.0112
 N-N= 1.517158444973D+03 E-N=-1.070629704254D+04  KE= 3.219642729062D+03
  Exact polarizability:   0.000   0.000   0.000   0.000   0.000   0.000
 Approx polarizability: 224.054  -4.689 198.603  -4.148   7.607 196.586
   1 Symmetry operations used in ECPInt.
 ECPInt:  NShTT=   31125 NPrTT=   97908 LenC2=   28079 LenP2D=   63697.
 LDataN:  DoStor=T MaxTD1= 8 Len=  415
 D2PCM: PCM CHGder 2nd derivatives, FixD1E=F FixD2E=F DoIter=F DoCFld=F I1PDM=0
 Calling FoFJK, ICntrl=    100147 FMM=F ISym2X=0 I1Cent= 0 IOpClX= 0 NMat=1 NMatS=1 NMatT=0.
 ***** Axes restored to original set *****
 -------------------------------------------------------------------
 Center     Atomic                   Forces (Hartrees/Bohr)
 Number     Number              X              Y              Z
 -------------------------------------------------------------------
      1        6           0.000007201    0.000004041   -0.000003962
      2        6          -0.000003215   -0.000002590    0.000005186
      3        8          -0.000001757    0.000006265   -0.000001473
      4        6          -0.000005567   -0.000003097   -0.000005425
      5        6           0.000003294   -0.000005739   -0.000003584
      6        1          -0.000002564    0.000002508    0.000002401
      7        1          -0.000001241    0.000000136    0.000002691
      8        1          -0.000001494    0.000002074    0.000003675
      9        7           0.000002700   -0.000001265    0.000000381
     10        1          -0.000006812   -0.000000623    0.000001244
     11        1           0.000001262    0.000003335    0.000002847
     12        6           0.000003394    0.000000324    0.000003246
     13        6           0.000004598    0.000000632    0.000003890
     14        6          -0.000003679    0.000000713   -0.000008744
     15        6          -0.000000244    0.000003180    0.000007941
     16        6          -0.000002314    0.000001136   -0.000003106
     17        6           0.000000453   -0.000000861    0.000000531
     18        1           0.000000426    0.000000693   -0.000000571
     19        1          -0.000000056    0.000003131    0.000003841
     20        1           0.000001169    0.000001321    0.000000868
     21        1          -0.000000104    0.000000320    0.000001064
     22        1          -0.000000028   -0.000000435   -0.000000712
     23        1          -0.000000000    0.000000501    0.000001837
     24       35           0.000006315   -0.000000769   -0.000003597
     25        7           0.000004640   -0.000008390    0.000002355
     26        6          -0.000000775    0.000001347   -0.000006928
     27        6          -0.000002951   -0.000000472   -0.000006941
     28        1          -0.000001323   -0.000000882    0.000002034
     29        1          -0.000000501   -0.000001527    0.000000420
     30        1          -0.000000096   -0.000001257   -0.000001354
     31        1          -0.000000514   -0.000001387   -0.000000994
     32        1           0.000001002   -0.000001185   -0.000001032
     33        1          -0.000001217   -0.000001182    0.000001971
 -------------------------------------------------------------------
 Cartesian Forces:  Max     0.000008744 RMS     0.000003153
 FormGI is forming the generalized inverse of G from B-inverse, IUseBI=4.

 GradGradGradGradGradGradGradGradGradGradGradGradGradGradGradGradGradGrad
 Berny optimization.
 Internal  Forces:  Max     0.000009508 RMS     0.000002509
 Search for a saddle point.
 Step number   1 out of a maximum of   70
 All quantities printed in internal units (Hartrees-Bohrs-Radians)
 Swapping is turned off.
 Second derivative matrix not updated -- analytic derivatives used.
 ITU=  0
     Eigenvalues ---   -0.03268   0.00136   0.00167   0.00233   0.00296
     Eigenvalues ---    0.00386   0.00481   0.01001   0.01615   0.01774
     Eigenvalues ---    0.01807   0.01838   0.01915   0.02122   0.02255
     Eigenvalues ---    0.02491   0.02571   0.02727   0.02915   0.02978
     Eigenvalues ---    0.03122   0.03301   0.04600   0.04691   0.04820
     Eigenvalues ---    0.05426   0.05748   0.05981   0.06008   0.06148
     Eigenvalues ---    0.06192   0.06250   0.06523   0.08847   0.10126
     Eigenvalues ---    0.10937   0.11583   0.12109   0.12359   0.12819
     Eigenvalues ---    0.12871   0.13188   0.13224   0.13773   0.15824
     Eigenvalues ---    0.16701   0.17089   0.17396   0.17587   0.17851
     Eigenvalues ---    0.18085   0.18445   0.18742   0.19485   0.19624
     Eigenvalues ---    0.20014   0.21100   0.22573   0.22871   0.26872
     Eigenvalues ---    0.27749   0.29744   0.32439   0.32732   0.33121
     Eigenvalues ---    0.33457   0.33911   0.34075   0.34275   0.34650
     Eigenvalues ---    0.34717   0.35230   0.35407   0.36041   0.36287
     Eigenvalues ---    0.36302   0.36473   0.36624   0.36852   0.37739
     Eigenvalues ---    0.38409   0.41046   0.42300   0.42861   0.43419
     Eigenvalues ---    0.45836   0.46619   0.48091   0.48161   0.50699
     Eigenvalues ---    0.52081   0.55358   0.70607
 Eigenvectors required to have negative eigenvalues:
                          R6        D7        R2        D9        D1
   1                    0.85827  -0.18434  -0.15576   0.13634   0.13433
                          D28       A11       D29       A10       D2
   1                    0.13094  -0.12971   0.12592  -0.12182   0.11959
 RFO step:  Lambda0=4.383724182D-10 Lambda= 0.00000000D+00.
 Linear search not attempted -- option 19 set.
 Iteration  1 RMS(Cart)=  0.00008369 RMS(Int)=  0.00000000
 Iteration  2 RMS(Cart)=  0.00000000 RMS(Int)=  0.00000000
 Variable       Old X    -DE/DX   Delta X   Delta X   Delta X     New X
                                 (Linear)    (Quad)   (Total)
    R1        2.74650   0.00001   0.00000   0.00002   0.00002   2.74651
    R2        2.64075  -0.00001   0.00000  -0.00003  -0.00003   2.64071
    R3        3.63303   0.00000   0.00000   0.00000   0.00000   3.63303
    R4        2.35828   0.00001   0.00000   0.00001   0.00001   2.35829
    R5        2.57510   0.00000   0.00000  -0.00000  -0.00000   2.57510
    R6        3.58034  -0.00001   0.00000   0.00007   0.00007   3.58041
    R7        2.81836   0.00000   0.00000   0.00000   0.00000   2.81836
    R8        2.05331   0.00000   0.00000   0.00000   0.00000   2.05331
    R9        2.05737  -0.00000   0.00000  -0.00001  -0.00001   2.05736
   R10        2.06119  -0.00000   0.00000  -0.00000  -0.00000   2.06118
   R11        2.05965   0.00000   0.00000   0.00001   0.00001   2.05966
   R12        2.75495  -0.00000   0.00000  -0.00001  -0.00001   2.75493
[...]
 0006685,-0.00006744,-0.00269252,-0.00048680,0.00368792,0.00329656,0.00
 054952,0.00123531,-0.28489848,0.06793796,-0.08184095,0.00078728,-0.000
 36400,-0.00084631,0.30657832,-0.00016987,0.00084200,-0.00034701,0.0033
 8078,0.00122170,0.00010804,-0.00017441,-0.00054613,0.00008994,-0.00085
 028,-0.00092008,0.00025546,-0.00012462,0.00002205,-0.00014896,0.000009
 00,-0.00000228,0.00000124,0.00005693,0.00006692,0.00001210,0.00000239,
 0.00000193,0.00002015,0.00029439,0.00057413,-0.00049168,0.00011219,-0.
 00003414,-0.00000421,-0.00000079,0.00001796,0.00001107,-0.00008333,0.0
 0001983,0.00000651,0.00000524,0.00001209,0.00001095,0.00001243,-0.0000
 0920,0.00000843,0.00001864,-0.00001057,-0.00001241,-0.00000665,0.00001
 384,0.00000743,0.00004721,-0.00002566,-0.00000808,-0.00000744,0.000008
 05,-0.00000065,0.00000589,-0.00000382,-0.00000230,0.00000336,-0.000001
 76,0.00000020,0.00000611,-0.00000241,0.00000373,-0.00000523,-0.0000005
 2,-0.00000363,0.00000664,0.00008825,-0.00006930,0.00000712,0.00027347,
 0.00012309,0.03035242,-0.01330875,0.00915963,0.05743561,-0.06634282,0.
 02197508,-0.00218214,-0.00384690,0.00396235,-0.07156667,0.07620602,0.0
 0050925,0.00020683,0.00007417,-0.00248352,-0.00034743,0.00079538,0.000
 25101,0.00031472,-0.00022050,0.00074914,0.00075346,-0.00042481,0.00012
 910,-0.00000288,0.00013497,-0.00001007,0.00000164,-0.00000255,-0.00005
 421,-0.00006791,-0.00000827,-0.00000457,-0.00000277,-0.00001952,-0.000
 25669,-0.00055026,0.00050225,-0.00008988,0.00003915,-0.00001169,0.0000
 0322,0.00000330,-0.00002370,0.00011004,-0.00005660,0.00002506,-0.00003
 409,-0.00001585,0.00002230,-0.00000952,-0.00000402,-0.00001967,-0.0000
 2785,0.00001666,0.00000465,-0.00000210,-0.00000766,-0.00001504,-0.0000
 4910,0.00002684,0.00002745,0.00002055,-0.00000652,-0.00003798,-0.00000
 926,0.00000528,0.00000435,-0.00000626,0.00000310,-0.00000292,-0.000008
 97,0.00000295,-0.00000614,0.00000983,-0.00000307,-0.00000104,-0.000041
 12,-0.00008863,0.00005201,0.00207003,-0.00069460,-0.00276479,-0.013972
 56,0.00662670,-0.00543709,-0.07530811,0.02274831,-0.07478061,0.0013858
 3,0.00112649,-0.00140731,0.08276328,-0.02890552,0.07870342,-0.00192445
 ,-0.00055282,0.00061407,0.00145924,0.00062914,-0.00001787,-0.00005483,
 0.00004736,0.00022156,0.00113978,0.00133804,-0.00048781,0.00017504,-0.
 00001126,0.00021272,-0.00001829,-0.00000083,-0.00000425,-0.00008209,-0
 .00009447,-0.00001452,-0.00000472,-0.00000319,-0.00002749,-0.00040104,
 -0.00075909,0.00062305,-0.00005683,0.00007196,-0.00005249,-0.00000188,
 -0.00000524,-0.00001947,0.00013152,-0.00008427,0.00006991,-0.00003515,
 -0.00002426,0.00000908,-0.00001846,0.00001216,-0.00002579,-0.00003580,
 0.00002176,0.00001752,0.00000966,-0.00001323,-0.00001821,-0.00006715,0
 .00003683,0.00002540,0.00001773,-0.00001782,-0.00003071,-0.00001173,0.
 00000784,0.00000471,-0.00000787,0.00000235,-0.00000228,-0.00001111,0.0
 0000331,-0.00000768,0.00001046,-0.00000426,-0.00000001,-0.00002314,-0.
 00008323,0.00007817,-0.00027316,-0.00045706,0.00012319,-0.00082486,-0.
 00171500,0.00154030,-0.14477071,0.01431469,0.12330202,0.00021080,0.000
 12192,-0.00272529,-0.01386202,0.00227997,0.02345122,0.15102271,-0.0017
 0074,-0.00024005,-0.00086796,0.00682069,0.00174634,0.00368315,-0.00123
 743,-0.00274444,-0.00088463,0.00042129,0.00088404,-0.00031884,0.000088
 55,0.00002391,0.00009822,-0.00001632,-0.00000818,-0.00000470,-0.000038
 53,-0.00004754,-0.00000491,-0.00000243,-0.00000050,-0.00001311,-0.0001
 8550,-0.00032757,0.00033461,0.00010163,0.00005606,-0.00012731,-0.00001
 795,-0.00003202,-0.00000971,0.00004919,-0.00007437,0.00005680,0.000005
 46,-0.00000825,-0.00004661,-0.00002080,0.00002322,-0.00000836,-0.00002
 386,0.00001228,0.00002780,0.00002604,-0.00001440,-0.00000736,-0.000057
 34,0.00002840,0.00000413,0.00000403,-0.00001187,0.00002535,-0.00000609
 ,0.00000500,0.00000152,-0.00000248,0.00000075,0.00000127,-0.00000599,0
 .00000128,-0.00000377,0.00000695,-0.00000190,0.00000210,0.00004536,0.0
 0000633,0.00008478,0.00071786,0.00028835,-0.00029029,-0.02538686,-0.01
 016239,0.03171349,0.01886982,-0.05048019,-0.02436445,-0.00208123,0.001
 90203,0.00122352,0.00320540,-0.00068945,-0.00682673,-0.01367892,0.0611
 0782,0.00124012,-0.00004237,0.00065206,-0.00606601,-0.00335042,-0.0018
 6903,0.00063018,0.00250794,-0.00016170,-0.00042478,-0.00084693,0.00042
 436,-0.00009562,-0.00003205,-0.00010677,0.00001819,0.00000763,0.000004
 29,0.00004205,0.00005059,0.00000567,0.00000158,0.00000134,0.00001625,0
 .00020766,0.00031843,-0.00032109,-0.00012030,-0.00007188,0.00013055,0.
 00001461,0.00001328,0.00001152,-0.00007020,0.00009174,-0.00006789,0.00
 002052,0.00001361,0.00001027,0.00001716,-0.00000965,0.00001505,0.00002
 720,-0.00001701,-0.00001756,-0.00001397,0.00000916,0.00001337,0.000053
 65,-0.00003072,-0.00001603,-0.00000898,0.00001106,0.00001487,0.0000089
 1,-0.00000649,-0.00000339,0.00000567,-0.00000175,0.00000110,0.00000843
 ,-0.00000185,0.00000577,-0.00000798,0.00000406,-0.00000047,-0.00001370
 ,0.00002933,-0.00007137,0.00011686,-0.00001592,-0.00022781,0.01332191,
 0.01127796,-0.01239871,0.12150295,-0.02129550,-0.20957117,0.00093775,-
 0.00022589,0.00186547,-0.00595823,0.00023922,0.01020837,-0.13740722,0.
 01426813,0.22772893,0.00028636,-0.00063532,-0.00018767,0.00106947,-0.0
 0020657,-0.00059349,-0.00029727,-0.00095386,0.00044574,-0.00007646,0.0
 0011949,0.00008199,0.00001885,0.00001774,0.00000541,-0.00000487,-0.000
 00382,-0.00000122,-0.00000204,-0.00000800,0.00000047,-0.00000010,-0.00
 000081,-0.00000160,-0.00005160,-0.00002377,0.00005604,0.00007548,0.000
 01239,-0.00005548,-0.00000806,-0.00001097,-0.00000889,0.00000624,-0.00
 000675,-0.00001691,0.00001688,0.00001009,-0.00002557,-0.00000817,0.000
 01055,0.00000343,-0.00000116,-0.00000073,0.00001105,0.00001040,-0.0000
 0499,-0.00000189,-0.00001962,0.00000951,-0.00000505,-0.00000162,-0.000
 00365,0.00002459,-0.00000031,0.00000067,-0.00000053,0.00000055,-0.0000
 0039,0.00000155,-0.00000084,0.00000049,0.00000002,0.00000128,0.0000005
 7,0.00000277,0.00003592,0.00001467,0.00001967,0.00013613,0.00019912,-0
 .00010190,-0.00063937,-0.00221693,0.00201967,-0.08283779,-0.06197683,-
 0.05902078,0.00075375,0.00039321,0.00035012,-0.00830356,-0.02027123,-0
 .01855788,0.00757481,0.01406554,0.01301754,0.08215166,-0.00190230,-0.0
 0014931,-0.00056459,0.00839857,-0.00039236,-0.00389114,-0.00214379,-0.
 00310653,0.00217026,0.00058770,0.00110515,-0.00033428,0.00011131,0.000
 04016,0.00016120,-0.00002707,-0.00001267,-0.00000459,-0.00005987,-0.00
 006963,-0.00000864,0.00000180,-0.00000317,-0.00002343,-0.00038376,-0.0
 0047616,0.00045972,0.00020994,0.00010303,-0.00021436,-0.00002958,-0.00
 002670,0.00000300,0.00005928,-0.00010549,0.00008328,-0.00003118,-0.000
 01279,-0.00004128,-0.00001477,0.00001994,-0.00000886,-0.00003424,0.000
 01717,0.00001858,0.00001487,-0.00001245,-0.00001113,-0.00006570,0.0000
 3862,0.00002253,0.00001196,-0.00001404,0.00000680,-0.00001057,0.000007
 69,0.00000342,-0.00000540,0.00000199,-0.00000027,-0.00000991,0.0000029
 5,-0.00000635,0.00001052,-0.00000389,0.00000203,0.00005620,-0.00001721
 ,0.00006481,0.00026485,0.00023063,0.00020540,-0.01573251,-0.03219292,-
 0.00553528,-0.06177228,-0.16654986,-0.11268137,-0.00283008,0.00044009,
 -0.00057253,0.00254413,0.00709635,0.00520191,-0.00106165,-0.00102390,-
 0.00328408,0.07251468,0.19479447,0.00000703,-0.00001902,0.00011251,-0.
 00043761,0.00233507,0.00091804,0.00076297,0.00075455,-0.00116438,0.000
 07550,-0.00002980,0.00001157,0.00000063,-0.00001471,-0.00000319,0.0000
 0375,0.00000349,0.00000030,0.00000075,0.00000084,0.00000002,-0.0000014
 4,0.00000108,0.00000213,0.00003932,-0.00002988,0.00001275,-0.00007739,
 -0.00000997,0.00004940,0.00000411,-0.00001141,-0.00000395,-0.00002333,
 0.00000748,-0.00001591,0.00000298,-0.00000702,-0.00001545,0.00000814,-
 0.00000421,0.00000795,0.00000094,-0.00000281,-0.00000741,-0.00000499,0
 .00000257,0.00000601,0.00000932,-0.00000418,0.00000361,0.00000158,0.00
 000568,0.00001156,0.00000079,-0.00000123,0.,0.00000103,0.00000052,0.00
 000039,0.00000094,-0.00000003,0.00000057,-0.00000024,0.00000144,0.0000
 0096,-0.00000523,0.00000834,-0.00000090,0.00044688,0.00025435,-0.00041
 538,0.00845802,0.01640053,0.01469845,-0.06164556,-0.11548552,-0.155125
 37,0.00110216,0.00006833,0.00049948,-0.00145941,-0.00593367,-0.0057252
 5,-0.00977972,-0.01648579,-0.01560668,0.06276244,0.11892772,0.16219414
 ,0.00000915,0.00017342,0.00034793,0.00145456,0.00360476,-0.00157111,-0
 .00186227,-0.00277187,0.00073690,0.00025459,0.00014630,-0.00012957,0.0
 0000746,-0.00002495,0.00003437,0.00000280,0.00000330,0.00000151,-0.000
 01093,-0.00000787,-0.00000327,0.00000012,0.00000079,-0.00000313,-0.000
 05034,-0.00011205,0.00006953,-0.00006479,-0.00000559,0.00005579,0.0000
 0603,-0.00000361,0.00001154,-0.00000185,0.,0.00000599,0.00000144,-0.00
 001135,0.00000206,0.00000167,0.00000183,-0.00000258,-0.00000072,-0.000
 00019,0.00000029,-0.00000015,-0.00000120,0.00000109,0.00000311,-0.0000
 0005,0.00000098,0.00000160,0.00000087,-0.00000253,0.00000033,0.0000001
 6,0.00000012,0.,0.00000024,-0.00000015,0.00000028,-0.00000015,0.000000
 05,0.00000055,0.00000093,-0.00000035,-0.00002249,-0.00002529,-0.000009
 06,-0.00003776,-0.00001521,0.00010065,-0.00038496,0.02541959,-0.022053
 53,-0.00499803,0.00046484,-0.00039277,-0.05058541,-0.01913113,0.019734
 18,-0.00002886,0.00148816,-0.00058064,-0.00002373,-0.00015754,-0.00003
 426,0.00007043,0.00011331,0.00015836,0.05644214,0.00069151,-0.00009459
 ,0.00000912,-0.00272250,-0.00217008,0.00025296,-0.00309676,0.00105779,
 -0.00054951,-0.00022695,-0.00029000,0.00010131,-0.00003476,0.00000134,
 -0.00003658,0.00000299,-0.00000010,0.00000112,0.00001455,0.00001834,0.
 00000254,0.00000155,0.00000014,0.00000471,0.00005523,0.00014970,-0.000
 13582,0.00000220,-0.00000642,0.00001046,0.00000068,0.00000337,0.000006
 64,-0.00002783,0.00002777,0.00001951,-0.00000139,0.00000820,-0.0000030
 8,0.00000370,-0.00000101,0.00000755,0.00000890,-0.00000424,-0.00000436
 ,-0.00000380,0.00000266,0.00000297,0.00001911,-0.00000959,-0.00000380,
 -0.00000324,0.00000214,0.00000512,0.00000182,-0.00000121,-0.00000111,0
 .00000131,-0.00000091,0.00000032,0.00000209,-0.00000059,0.00000153,-0.
 00000195,0.00000037,-0.00000052,0.00000311,0.00004267,-0.00002326,-0.0
 0004279,0.00012229,0.00005748,0.00226202,-0.01580824,0.01009836,0.0039
 4586,0.00056735,0.00065581,-0.01091217,-0.19633293,0.13685049,-0.00000
 474,-0.00099008,0.00048246,-0.00017482,0.00017520,-0.00011891,-0.00013
 465,0.00011165,-0.00005626,0.01050423,0.21518729,-0.00017834,-0.000104
 84,-0.00005904,0.00093560,0.00275079,0.00060304,0.00203588,-0.00141246
 ,0.00011746,0.00002580,0.00005698,-0.00002353,-0.00000016,-0.00001627,
 0.00000104,0.00000395,0.00000323,0.00000078,-0.00000071,0.00000088,-0.
 00000063,-0.00000181,0.00000079,0.00000036,0.00002419,-0.00002423,-0.0
 0000063,-0.00004718,-0.00002415,0.00006001,0.00000787,-0.00000104,0.00
 000094,-0.00000720,-0.00001453,-0.00001909,0.00000558,-0.00000218,0.00
 000284,0.00000169,-0.00000165,-0.00000193,0.,0.00000012,-0.00000093,0.
 00000025,0.00000086,0.00000084,-0.00000063,-0.00000146,-0.00000019,-0.
 00000070,0.00000094,-0.00000028,0.00000092,-0.00000048,-0.00000002,0.0
 0000025,-0.00000004,0.,0.00000043,0.00000001,0.00000018,-0.00000064,0.
 00000022,-0.00000038,-0.00001468,-0.00001890,-0.00000531,0.00000339,-0
 .00010827,-0.00005930,-0.00193818,-0.00027282,0.00080549,-0.00034737,-
 0.00068137,0.00015006,0.01221980,0.13893622,-0.17640277,0.00008228,0.0
 0011485,0.00023765,0.00001166,-0.00025082,0.00024746,0.00000247,0.0001
 2176,0.00001355,-0.01580168,-0.15150632,0.18410494,-0.00230900,-0.0007
 8832,0.00011848,0.00124331,0.00492492,-0.00431039,-0.00007808,-0.00082
 522,0.00031052,0.00044392,0.00120625,-0.00021361,0.00014472,0.00001699
 ,0.00017506,-0.00002108,-0.00000572,-0.00000437,-0.00006732,-0.0000810
 1,-0.00001099,-0.00000174,-0.00000169,-0.00002561,-0.00035832,-0.00057
 164,0.00052735,0.00007016,0.00008560,-0.00012494,-0.00001510,-0.000024
 33,-0.00001132,0.00008867,-0.00009567,-0.00000572,-0.00002750,-0.00001
 460,-0.00002224,-0.00001611,0.00000982,-0.00000953,-0.00003404,0.00001
 795,0.00001394,0.00000678,-0.00001350,-0.00002071,-0.00008518,0.000045
 48,0.00003512,0.00001562,-0.00001088,-0.00001032,-0.00001212,0.0000077
 4,0.00000449,-0.00000674,0.00000323,-0.00000124,-0.00001255,0.00000496
 ,-0.00000745,0.00001262,-0.00000420,0.00000246,0.00001167,-0.00005704,
 0.00012076,-0.00005826,0.00016808,0.00022369,-0.03396415,-0.01783348,-
 0.00530615,0.00079630,-0.00146926,0.00138145,-0.17381495,-0.11823817,-
 0.05116851,0.00020957,-0.00000122,0.00013206,0.00012714,0.00016719,-0.
 00035785,-0.00009626,0.00074829,-0.00012086,-0.00002089,-0.00037299,0.
 00038818,0.20166623,0.00085200,0.00050155,-0.00065142,0.00151627,-0.00
 425622,0.00122560,-0.00249802,0.00117767,-0.00001405,-0.00014653,-0.00
 030667,-0.00002413,-0.00002842,0.00003000,-0.00005252,-0.00000191,-0.0
 0000474,-0.00000142,0.00001912,0.00001790,0.00000522,0.00000064,-0.000
 00029,0.00000625,0.00008552,0.00019190,-0.00012011,0.00008521,0.000010
 61,-0.00006903,-0.00000932,0.00000509,-0.00000687,-0.00000956,0.000008
 92,0.00005166,-0.00000957,0.00000446,0.00000119,0.00000222,-0.00000173
 ,0.00000136,0.00000156,-0.00000102,-0.00000208,0.00000062,0.00000413,0
 .00000552,0.00001833,-0.00000896,-0.00000654,-0.00000194,0.00000194,-0
 .00000121,0.00000054,-0.00000062,-0.00000027,0.00000047,-0.00000028,-0
 .00000007,0.00000178,-0.00000140,0.00000070,-0.00000119,0.00000027,-0.
 00000024,0.00000924,0.00005200,-0.00001038,-0.00000757,-0.00001804,0.0
 0000561,0.01939255,0.01235851,0.00605757,0.00094778,0.00171913,0.00142
 105,-0.12662203,-0.16746644,-0.04969864,-0.00011980,0.00018410,-0.0001
 5373,0.00042024,-0.00030680,-0.00011402,-0.00051613,0.00024290,-0.0007
 4627,-0.01415860,-0.01215646,-0.00876856,0.12869109,0.17561068,-0.0003
 6093,0.00012611,0.00011880,0.00144270,0.00186482,-0.00069567,0.0016701
 1,-0.00070007,0.00045895,0.00018870,0.00019461,-0.00007521,0.00001356,
 -0.00001373,0.00002423,0.00000094,0.00000218,0.00000040,-0.00000916,-0
 .00000903,-0.00000262,-0.00000059,-0.00000014,-0.00000283,-0.00003016,
 -0.00010687,0.00008018,-0.00004028,-0.00000811,0.00003713,0.00000446,-
 0.00000482,0.00000349,0.00001461,-0.00000709,-0.00000206,0.00000167,-0
 .00000716,-0.00000016,0.,0.00000201,-0.00000241,-0.00000295,0.00000170
 ,0.00000183,0.00000174,-0.00000314,-0.00000013,-0.00000624,0.00000309,
 0.00000070,0.00000089,-0.00000045,-0.00000009,-0.00000030,0.00000036,0
 .00000031,-0.00000034,0.00000025,0.00000001,-0.00000046,0.00000009,-0.
 00000041,0.00000071,0.00000056,0.00000004,-0.00000201,-0.00002571,-0.0
 0000446,-0.00003277,0.00001118,0.00002752,-0.00234158,0.00117302,0.001
 52494,-0.00034485,0.00016245,0.00022308,-0.05254824,-0.04928925,-0.070
 84318,0.00020764,-0.00000756,-0.00001906,-0.00026204,-0.00002105,-0.00
 049962,-0.00013716,0.00003676,-0.00011503,0.01589193,0.01262270,0.0083
 0268,0.05678781,0.05393340,0.06925445,-0.00224054,-0.00064132,-0.00130
 554,0.00462398,0.00693445,0.00018355,0.00069964,-0.00269196,0.00094494
 ,0.00054477,0.00148461,-0.00066670,0.00013128,0.00002188,0.00015120,-0
 .00001853,-0.00000487,-0.00000537,-0.00006098,-0.00007203,-0.00000831,
 -0.00000348,-0.00000145,-0.00002221,-0.00024403,-0.00051660,0.00049208
 ,0.00005641,0.00007057,-0.00010072,-0.00000940,-0.00001966,-0.00001331
 ,0.00003655,-0.00022787,0.00013816,-0.00005639,-0.00002519,-0.00003264
 ,-0.00000832,0.00001783,-0.00001683,-0.00004883,0.00002418,0.00001362,
 0.00001583,-0.00000304,-0.00001265,-0.00007105,0.00004472,0.00003088,0
 .00001538,-0.00001241,-0.00001193,-0.00001402,0.00000938,0.00000547,-0
 .00000796,0.00000257,-0.00000153,-0.00001277,0.00000305,-0.00000875,0.
 00001052,-0.00000871,-0.00000017,0.00002598,-0.00003268,0.00005004,-0.
 00005858,-0.00007193,0.00013219,-0.02343305,0.01687753,0.02729026,-0.0
 0048761,-0.00219082,0.00204924,-0.05791353,0.01884911,0.04690701,0.000
 02736,-0.00008058,-0.00007814,0.00063011,0.00002501,-0.00061384,0.0001
 4088,0.00046726,-0.00029186,-0.00016309,0.00024047,0.00258908,0.006162
 65,-0.00791458,-0.02010742,0.07173083,0.00112342,0.00021505,0.00032444
 ,-0.00375253,-0.00295163,0.00064526,0.00117900,0.00196467,-0.00090236,
 -0.00032840,-0.00069499,0.00030663,-0.00007160,-0.00002924,-0.00009216
 ,0.00001631,0.00000735,0.00000310,0.00003517,0.00004259,0.00000414,0.0
 0000009,0.00000125,0.00001362,0.00020385,0.00027417,-0.00026848,-0.000
 12176,-0.00007176,0.00012407,0.00001497,0.00000982,0.00000583,-0.00003
 573,0.00009069,-0.00004387,0.00002917,0.00001344,0.00001603,0.00000479
 ,-0.00000564,0.00000792,0.00002543,-0.00001249,-0.00000513,-0.00000452
 ,0.00000166,0.00000725,0.00004034,-0.00002468,-0.00001962,-0.00000973,
 0.00000588,0.00000838,0.00000758,-0.00000489,-0.00000307,0.00000442,-0
 .00000170,0.00000095,0.00000726,-0.00000195,0.00000482,-0.00000600,0.0
 0000416,-0.00000055,-0.00001467,0.00002747,-0.00005030,0.00007337,-0.0
 0001083,-0.00008255,0.01503029,-0.00801024,-0.01140135,0.00076339,0.00
 181802,-0.00244466,0.01858899,-0.08533355,-0.08481243,-0.00010183,0.00
 008590,0.00017441,-0.00056612,-0.00008719,0.00062197,-0.00039332,-0.00
 008371,0.00006977,-0.00549608,0.01038821,0.02122274,0.00431135,-0.0075
 9207,-0.01993109,-0.03055690,0.08996623,0.00089633,0.00020425,-0.00021
 338,-0.00300752,-0.00249443,0.00083455,-0.00004407,0.00110128,-0.00025
 326,-0.00041743,-0.00060995,0.00023178,-0.00006840,-0.00001063,-0.0001
 0028,0.00001290,0.00000441,0.00000147,0.00003645,0.00004071,0.00000598
 ,-0.00000037,0.00000150,0.00001442,0.00022205,0.00028822,-0.00024017,-
 0.00006594,-0.00006061,0.00007261,0.00000668,0.00000932,-0.00000158,-0
 .00003171,0.00004829,-0.00003885,0.00001368,0.00001094,0.00001372,0.00
 000987,-0.00000878,0.00000700,0.00001571,-0.00000871,-0.00000877,-0.00
 000389,0.00000496,0.00000877,0.00003223,-0.00002005,-0.00001714,-0.000
 00792,0.00000739,0.00000570,0.00000576,-0.00000442,-0.00000195,0.00000
 360,-0.00000104,0.00000063,0.00000579,-0.00000191,0.00000371,-0.000005
 51,0.00000228,-0.00000061,-0.00001247,0.00003137,-0.00003501,-0.000003
 68,-0.00006284,-0.00013320,0.00664641,0.00237102,0.00959608,-0.0005089
 6,-0.00001053,0.00131628,0.04853098,-0.08483107,-0.25440573,-0.0000119
 5,-0.00017452,0.00013589,0.00057827,-0.00098848,-0.00041607,-0.0000889
 4,-0.00030700,-0.00034450,0.00343136,-0.00875365,-0.01807532,0.0015104
 4,-0.00227358,-0.00779582,-0.05767977,0.09649629,0.26983305\\-0.000007
 47,-0.00000404,0.00000394,0.00000328,0.00000264,-0.00000520,0.00000178
 ,-0.00000636,0.00000150,0.00000565,0.00000316,0.00000535,-0.00000330,0
 .00000574,0.00000359,0.00000258,-0.00000252,-0.00000240,0.00000124,-0.
 00000014,-0.00000269,0.00000149,-0.00000207,-0.00000367,-0.00000271,0.
 00000128,-0.00000035,0.00000681,0.00000061,-0.00000124,-0.00000126,-0.
 00000336,-0.00000286,-0.00000343,-0.00000030,-0.00000324,-0.00000455,-
 0.00000065,-0.00000388,0.00000376,-0.00000073,0.00000880,0.00000022,-0
 .00000316,-0.00000791,0.00000237,-0.00000117,0.00000307,-0.00000038,0.
 00000084,-0.00000050,-0.00000047,-0.00000069,0.00000051,0.00000004,-0.
 00000312,-0.00000385,-0.00000122,-0.00000130,-0.00000088,0.00000008,-0
 .00000031,-0.00000109,0.,0.00000045,0.00000073,0.,-0.00000047,-0.00000
 180,-0.00000628,0.00000075,0.00000359,-0.00000459,0.00000838,-0.000002
 37,0.00000078,-0.00000131,0.00000693,0.00000297,0.00000046,0.00000694,
 0.00000131,0.00000088,-0.00000204,0.00000050,0.00000152,-0.00000041,0.
 00000009,0.00000125,0.00000136,0.00000051,0.00000139,0.00000099,-0.000
 00102,0.00000118,0.00000103,0.00000120,0.00000119,-0.00000196\\\@


 You never know when you're making a memory.
                        -- Rickie Lee Jones
 Job cpu time:       0 days 20 hours 38 minutes 55.3 seconds.
 Elapsed time:       0 days  1 hours 17 minutes 30.1 seconds.
 File lengths (MBytes):  RWF=   1280 Int=      0 D2E=      0 Chk=     38 Scr=      1
 Normal termination of Gaussian 16 at Sun Jan 31 15:27:38 2021.
