 Entering Gaussian System, Link 0=g16
 Initial command:
 /apps/gaussian/16/A.03/g16/l1.exe "/beegfs/scratch/user/q/tla25/Gau-15340.inp" -scrdir="/beegfs/scratch/user/q/tla25/"
 Entering Link 1 = /apps/gaussian/16/A.03/g16/l1.exe PID=     15341.
  
 Copyright (c) 1988,1990,1992,1993,1995,1998,2003,2009,2016,
            Gaussian, Inc.  All Rights Reserved.
  
 This is part of the Gaussian(R) 16 program.  It is based on
 the Gaussian(R) 09 system (copyright 2009, Gaussian, Inc.),
 the Gaussian(R) 03 system (copyright 2003, Gaussian, Inc.),
 the Gaussian(R) 98 system (copyright 1998, Gaussian, Inc.),
 the Gaussian(R) 94 system (copyright 1995, Gaussian, Inc.),
 the Gaussian 92(TM) system (copyright 1992, Gaussian, Inc.),
 the Gaussian 90(TM) system (copyright 1990, Gaussian, Inc.),
 the Gaussian 88(TM) system (copyright 1988, Gaussian, Inc.),
 the Gaussian 86(TM) system (copyright 1986, Carnegie Mellon
 University), and the Gaussian 82(TM) system (copyright 1983,
 Carnegie Mellon University). Gaussian is a federally registered
 trademark of Gaussian, Inc.
  
 This software contains proprietary and confidential information,
 including trade secrets, belonging to Gaussian, Inc.
  
 This software is provided under written license and may be
 used, copied, transmitted, or stored only in accord with that
 written license.
  
 The following legend is applicable only to US Government
 contracts under FAR:
  
                    RESTRICTED RIGHTS LEGEND
  
 Use, reproduction and disclosure by the US Government is
 subject to restrictions as set forth in subparagraphs (a)
 and (c) of the Commercial Computer Software - Restricted
 Rights clause in FAR 52.227-19.
  
 Gaussian, Inc.
 340 Quinnipiac St., Bldg. 40, Wallingford CT 06492
  
  
 ---------------------------------------------------------------
 Warning -- This program may not be used in any manner that
 competes with the business of Gaussian, Inc. or will provide
 assistance to any competitor of Gaussian, Inc.  The licensee
 of this program is prohibited from giving any competitor of
 Gaussian, Inc. access to this program.  By using this program,
 the user acknowledges that Gaussian, Inc. is engaged in the
 business of creating and licensing software in the field of
 computational chemistry and represents and warrants to the
 licensee that it is not a competitor of Gaussian, Inc. and that
 it will not use this program in any manner prohibited above.
 ---------------------------------------------------------------
  

 Cite this work as:
 Gaussian 16, Revision A.03,
 M. J. Frisch, G. W. Trucks, H. B. Schlegel, G. E. Scuseria, 
 M. A. Robb, J. R. Cheeseman, G. Scalmani, V. Barone, 
 G. A. Petersson, H. Nakatsuji, X. Li, M. Caricato, A. V. Marenich, 
 J. Bloino, B. G. Janesko, R. Gomperts, B. Mennucci, H. P. Hratchian, 
 J. V. Ortiz, A. F. Izmaylov, J. L. Sonnenberg, D. Williams-Young, 
 F. Ding, F. Lipparini, F. Egidi, J. Goings, B. Peng, A. Petrone, 
 T. Henderson, D. Ranasinghe, V. G. Zakrzewski, J. Gao, N. Rega, 
 G. Zheng, W. Liang, M. Hada, M. Ehara, K. Toyota, R. Fukuda, 
 J. Hasegawa, M. Ishida, T. Nakajima, Y. Honda, O. Kitao, H. Nakai, 
 T. Vreven, K. Throssell, J. A. Montgomery, Jr., J. E. Peralta, 
 F. Ogliaro, M. J. Bearpark, J. J. Heyd, E. N. Brothers, K. N. Kudin, 
 V. N. Staroverov, T. A. Keith, R. Kobayashi, J. Normand, 
 K. Raghavachari, A. P. Rendell, J. C. Burant, S. S. Iyengar, 
 J. Tomasi, M. Cossi, J. M. Millam, M. Klene, C. Adamo, R. Cammi, 
 J. W. Ochterski, R. L. Martin, K. Morokuma, O. Farkas, 
 J. B. Foresman, and D. J. Fox, Gaussian, Inc., Wallingford CT, 2016.
 
 ******************************************
 Gaussian 16:  ES64L-G16RevA.03 25-Dec-2016
                22-Feb-2021 
 ******************************************
 %nprocshared=16
 Will use up to   16 processors via shared memory.
 %mem=48GB
 ----------------------------------------------------------------------
 # wB97XD def2tzvp, opt=(ts, noeigen, calcfc, maxcycles=70, maxstep=1),
  freq=noraman, scrf=(iefpcm, solvent=water)
 ----------------------------------------------------------------------
 1/5=1,6=70,8=1,10=4,11=1,18=20,26=3,38=1/1,3;
 2/9=110,12=2,17=6,18=5,40=1/2;
 3/5=44,7=101,11=2,25=1,30=1,70=2201,71=2,72=1,74=-58,140=1/1,2,3;
 4//1;
 5/5=2,38=5,53=1/2;
 8/6=4,10=90,11=11/1;
 11/6=1,8=1,9=11,15=111,16=1/1,2,10;
 10/6=1,13=1/2;
 6/7=2,8=2,9=2,10=2,28=1/1;
 7/10=1,18=20,25=1/1,2,3,16;
 1/5=1,6=70,8=1,10=4,11=1,18=20,26=3/3(2);
 2/9=110/2;
 99//99;
 2/9=110/2;
 3/5=44,7=101,11=2,25=1,30=1,70=2205,71=1,72=1,74=-58/1,2,3;
 4/5=5,16=3,69=1/1;
 5/5=2,38=5,53=1/2;
 7//1,2,3,16;
 1/5=1,6=70,8=1,11=1,18=20,26=3/3(-5);
 2/9=110/2;
 6/7=2,8=2,9=2,10=2,19=2,28=1/1;
 99/9=1/99;
 ------------------------
 0_iteration/TS-734-0.out
 ------------------------
 Symbolic Z-matrix:
 Charge =  0 Multiplicity = 1
 C                    -0.3701    0.74928  -0.8444 
 C                    -1.76141   1.02655  -0.38993 
 O                    -2.04949   2.12837   0.08682 
 C                     0.55981   0.13052  -0.07477 
 C                     1.49908   2.52521   0.93329 
 H                     1.57525   3.19809   1.78631 
 H                     2.44167   2.52056   0.39083 
 H                     0.70035   2.86689   0.27413 
 N                     1.17632   1.16833   1.35927 
 H                     1.94984   0.72388   1.84353 
 H                     0.38029   1.17429   1.98838 
 Br                    2.279    -0.19432  -0.93237 
 Br                    0.01899  -1.3953    1.03158 
 H                    -0.006     1.41738  -1.61481 
 N                    -2.69831   0.06128  -0.53277 
 C                    -2.52514  -1.14127  -1.31884 
 C                    -4.03774   0.28404  -0.0301 
 H                    -1.52593  -1.16452  -1.74299 
 H                    -2.67193  -2.02966  -0.7004 
 H                    -3.25927  -1.15928  -2.12942 
 H                    -4.01382   1.03145   0.75728 
 H                    -4.70657   0.63042  -0.82402 
 H                    -4.43072  -0.65281   0.36743 
 
 Add virtual bond connecting atoms N9         and C4         Dist= 3.54D+00.

 GradGradGradGradGradGradGradGradGradGradGradGradGradGradGradGradGradGrad
 Berny optimization.
 Initialization pass.
                           ----------------------------
                           !    Initial Parameters    !
                           ! (Angstroms and Degrees)  !
 --------------------------                            --------------------------
 ! Name  Definition              Value          Derivative Info.                !
 --------------------------------------------------------------------------------
 ! R1    R(1,2)                  1.4897         calculate D2E/DX2 analytically  !
 ! R2    R(1,4)                  1.3564         calculate D2E/DX2 analytically  !
 ! R3    R(1,14)                 1.0828         calculate D2E/DX2 analytically  !
 ! R4    R(2,3)                  1.2346         calculate D2E/DX2 analytically  !
 ! R5    R(2,15)                 1.3527         calculate D2E/DX2 analytically  !
 ! R6    R(4,9)                  1.8745         calculate D2E/DX2 analytically  !
 ! R7    R(4,12)                 1.9485         calculate D2E/DX2 analytically  !
 ! R8    R(4,13)                 1.9608         calculate D2E/DX2 analytically  !
 ! R9    R(5,6)                  1.0891         calculate D2E/DX2 analytically  !
 ! R10   R(5,7)                  1.0875         calculate D2E/DX2 analytically  !
 ! R11   R(5,8)                  1.0905         calculate D2E/DX2 analytically  !
 ! R12   R(5,9)                  1.4583         calculate D2E/DX2 analytically  !
 ! R13   R(9,10)                 1.0151         calculate D2E/DX2 analytically  !
 ! R14   R(9,11)                 1.0146         calculate D2E/DX2 analytically  !
 ! R15   R(15,16)                1.4471         calculate D2E/DX2 analytically  !
 ! R16   R(15,17)                1.4479         calculate D2E/DX2 analytically  !
 ! R17   R(16,18)                1.0858         calculate D2E/DX2 analytically  !
 ! R18   R(16,19)                1.0924         calculate D2E/DX2 analytically  !
 ! R19   R(16,20)                1.0938         calculate D2E/DX2 analytically  !
 ! R20   R(17,21)                1.0859         calculate D2E/DX2 analytically  !
 ! R21   R(17,22)                1.0944         calculate D2E/DX2 analytically  !
 ! R22   R(17,23)                1.0909         calculate D2E/DX2 analytically  !
 ! A1    A(2,1,4)              123.5102         calculate D2E/DX2 analytically  !
 ! A2    A(2,1,14)             114.5994         calculate D2E/DX2 analytically  !
 ! A3    A(4,1,14)             117.0413         calculate D2E/DX2 analytically  !
 ! A4    A(1,2,3)              120.1217         calculate D2E/DX2 analytically  !
 ! A5    A(1,2,15)             118.8047         calculate D2E/DX2 analytically  !
 ! A6    A(3,2,15)             121.0628         calculate D2E/DX2 analytically  !
 ! A7    A(1,4,9)              114.0162         calculate D2E/DX2 analytically  !
 ! A8    A(1,4,12)             115.5435         calculate D2E/DX2 analytically  !
 ! A9    A(1,4,13)             119.0801         calculate D2E/DX2 analytically  !
 ! A10   A(9,4,12)              97.9801         calculate D2E/DX2 analytically  !
 ! A11   A(9,4,13)              95.1573         calculate D2E/DX2 analytically  !
 ! A12   A(12,4,13)            111.2214         calculate D2E/DX2 analytically  !
 ! A13   A(6,5,7)              109.4319         calculate D2E/DX2 analytically  !
 ! A14   A(6,5,8)              109.3333         calculate D2E/DX2 analytically  !
 ! A15   A(6,5,9)              111.1944         calculate D2E/DX2 analytically  !
 ! A16   A(7,5,8)              109.5517         calculate D2E/DX2 analytically  !
 ! A17   A(7,5,9)              109.4837         calculate D2E/DX2 analytically  !
 ! A18   A(8,5,9)              107.8171         calculate D2E/DX2 analytically  !
 ! A19   A(4,9,5)              111.3745         calculate D2E/DX2 analytically  !
 ! A20   A(4,9,10)             111.9125         calculate D2E/DX2 analytically  !
 ! A21   A(4,9,11)             102.6837         calculate D2E/DX2 analytically  !
 ! A22   A(5,9,10)             112.2151         calculate D2E/DX2 analytically  !
 ! A23   A(5,9,11)             110.4435         calculate D2E/DX2 analytically  !
 ! A24   A(10,9,11)            107.7356         calculate D2E/DX2 analytically  !
 ! A25   A(2,15,16)            124.5735         calculate D2E/DX2 analytically  !
 ! A26   A(2,15,17)            119.6215         calculate D2E/DX2 analytically  !
 ! A27   A(16,15,17)           115.2868         calculate D2E/DX2 analytically  !
 ! A28   A(15,16,18)           109.8849         calculate D2E/DX2 analytically  !
 ! A29   A(15,16,19)           110.6237         calculate D2E/DX2 analytically  !
 ! A30   A(15,16,20)           109.6294         calculate D2E/DX2 analytically  !
 ! A31   A(18,16,19)           109.1122         calculate D2E/DX2 analytically  !
 ! A32   A(18,16,20)           109.1375         calculate D2E/DX2 analytically  !
 ! A33   A(19,16,20)           108.4203         calculate D2E/DX2 analytically  !
 ! A34   A(15,17,21)           109.7096         calculate D2E/DX2 analytically  !
 ! A35   A(15,17,22)           111.2362         calculate D2E/DX2 analytically  !
 ! A36   A(15,17,23)           109.1247         calculate D2E/DX2 analytically  !
 ! A37   A(21,17,22)           108.7624         calculate D2E/DX2 analytically  !
 ! A38   A(21,17,23)           109.5596         calculate D2E/DX2 analytically  !
 ! A39   A(22,17,23)           108.4217         calculate D2E/DX2 analytically  !
 ! D1    D(4,1,2,3)             95.6423         calculate D2E/DX2 analytically  !
 ! D2    D(4,1,2,15)           -85.5418         calculate D2E/DX2 analytically  !
 ! D3    D(14,1,2,3)           -58.891          calculate D2E/DX2 analytically  !
 ! D4    D(14,1,2,15)          119.925          calculate D2E/DX2 analytically  !
 ! D5    D(2,1,4,9)            -70.5212         calculate D2E/DX2 analytically  !
 ! D6    D(2,1,4,12)           177.0588         calculate D2E/DX2 analytically  !
 ! D7    D(2,1,4,13)            40.6037         calculate D2E/DX2 analytically  !
 ! D8    D(14,1,4,9)            83.442          calculate D2E/DX2 analytically  !
 ! D9    D(14,1,4,12)          -28.9779         calculate D2E/DX2 analytically  !
 ! D10   D(14,1,4,13)         -165.4331         calculate D2E/DX2 analytically  !
 ! D11   D(1,2,15,16)          -12.064          calculate D2E/DX2 analytically  !
 ! D12   D(1,2,15,17)          176.5952         calculate D2E/DX2 analytically  !
 ! D13   D(3,2,15,16)          166.7404         calculate D2E/DX2 analytically  !
 ! D14   D(3,2,15,17)           -4.6004         calculate D2E/DX2 analytically  !
 ! D15   D(1,4,9,5)            -46.3834         calculate D2E/DX2 analytically  !
 ! D16   D(1,4,9,10)          -172.9005         calculate D2E/DX2 analytically  !
 ! D17   D(1,4,9,11)            71.8165         calculate D2E/DX2 analytically  !
 ! D18   D(12,4,9,5)            76.2419         calculate D2E/DX2 analytically  !
 ! D19   D(12,4,9,10)          -50.2752         calculate D2E/DX2 analytically  !
 ! D20   D(12,4,9,11)         -165.5582         calculate D2E/DX2 analytically  !
 ! D21   D(13,4,9,5)          -171.4461         calculate D2E/DX2 analytically  !
 ! D22   D(13,4,9,10)           62.0368         calculate D2E/DX2 analytically  !
 ! D23   D(13,4,9,11)          -53.2462         calculate D2E/DX2 analytically  !
 ! D24   D(6,5,9,4)            163.5011         calculate D2E/DX2 analytically  !
 ! D25   D(6,5,9,10)           -70.1479         calculate D2E/DX2 analytically  !
 ! D26   D(6,5,9,11)            50.0775         calculate D2E/DX2 analytically  !
 ! D27   D(7,5,9,4)            -75.4556         calculate D2E/DX2 analytically  !
 ! D28   D(7,5,9,10)            50.8953         calculate D2E/DX2 analytically  !
 ! D29   D(7,5,9,11)           171.1207         calculate D2E/DX2 analytically  !
 ! D30   D(8,5,9,4)             43.6602         calculate D2E/DX2 analytically  !
 ! D31   D(8,5,9,10)           170.0111         calculate D2E/DX2 analytically  !
 ! D32   D(8,5,9,11)           -69.7634         calculate D2E/DX2 analytically  !
 ! D33   D(2,15,16,18)           1.9311         calculate D2E/DX2 analytically  !
 ! D34   D(2,15,16,19)         122.4713         calculate D2E/DX2 analytically  !
 ! D35   D(2,15,16,20)        -118.0118         calculate D2E/DX2 analytically  !
 ! D36   D(17,15,16,18)        173.6083         calculate D2E/DX2 analytically  !
 ! D37   D(17,15,16,19)        -65.8516         calculate D2E/DX2 analytically  !
 ! D38   D(17,15,16,20)         53.6654         calculate D2E/DX2 analytically  !
 ! D39   D(2,15,17,21)         -23.6488         calculate D2E/DX2 analytically  !
 ! D40   D(2,15,17,22)          96.7334         calculate D2E/DX2 analytically  !
 ! D41   D(2,15,17,23)        -143.6899         calculate D2E/DX2 analytically  !
 ! D42   D(16,15,17,21)        164.2316         calculate D2E/DX2 analytically  !
 ! D43   D(16,15,17,22)        -75.3862         calculate D2E/DX2 analytically  !
 ! D44   D(16,15,17,23)         44.1905         calculate D2E/DX2 analytically  !
 --------------------------------------------------------------------------------
 Trust Radius=1.00D-02 FncErr=1.00D-07 GrdErr=1.00D-06 EigMax=2.50D+02 EigMin=1.00D-04
 Number of steps in this run=     70 maximum allowed number of steps=    138.
 Search for a saddle point of order  1.
 GradGradGradGradGradGradGradGradGradGradGradGradGradGradGradGradGradGrad

                          Input orientation:                          
 ---------------------------------------------------------------------
 Center     Atomic      Atomic             Coordinates (Angstroms)
 Number     Number       Type             X           Y           Z
 ---------------------------------------------------------------------
      1          6           0       -0.370100    0.749280   -0.844400
      2          6           0       -1.761410    1.026550   -0.389930
      3          8           0       -2.049490    2.128370    0.086820
      4          6           0        0.559810    0.130520   -0.074770
      5          6           0        1.499080    2.525210    0.933290
      6          1           0        1.575250    3.198090    1.786310
      7          1           0        2.441670    2.520560    0.390830
      8          1           0        0.700350    2.866890    0.274130
      9          7           0        1.176320    1.168330    1.359270
     10          1           0        1.949840    0.723880    1.843530
     11          1           0        0.380290    1.174290    1.988380
     12         35           0        2.279000   -0.194320   -0.932370
     13         35           0        0.018990   -1.395300    1.031580
     14          1           0       -0.006000    1.417380   -1.614810
     15          7           0       -2.698310    0.061280   -0.532770
     16          6           0       -2.525140   -1.141270   -1.318840
     17          6           0       -4.037740    0.284040   -0.030100
     18          1           0       -1.525930   -1.164520   -1.742990
     19          1           0       -2.671930   -2.029660   -0.700400
     20          1           0       -3.259270   -1.159280   -2.129420
     21          1           0       -4.013820    1.031450    0.757280
     22          1           0       -4.706570    0.630420   -0.824020
     23          1           0       -4.430720   -0.652810    0.367430
 ---------------------------------------------------------------------
                    Distance matrix (angstroms):
                    1          2          3          4          5
     1  C    0.000000
     2  C    1.489686   0.000000
     3  O    2.364193   1.234621   0.000000
     4  C    1.356439   2.508039   3.290283   0.000000
     5  C    3.131764   3.824616   3.669652   2.762780   0.000000
     6  H    4.086770   4.537059   4.143828   3.728904   1.089134
     7  H    3.545318   4.528524   4.518490   3.077413   1.087548
     8  H    2.623213   3.144533   2.853439   2.762101   1.090508
     9  N    2.724551   3.421996   3.598146   1.874461   1.458340
    10  H    3.550737   4.342042   4.588383   2.442158   2.067973
    11  H    2.961142   3.203914   3.229556   2.319110   2.046922
    12  Br   2.813512   4.255547   5.016918   1.948490   3.388924
    13  Br   2.875746   3.325037   4.193737   1.960771   4.191745
    14  H    1.082801   2.175901   2.752617   2.085155   3.159963
    15  N    2.447656   1.352749   2.253380   3.290882   5.083145
    16  C    2.905765   2.479032   3.590636   3.561190   5.891478
    17  C    3.785646   2.421255   2.714473   4.600329   6.050400
    18  H    2.409572   2.585925   3.803346   2.968231   5.470582
    19  H    3.611325   3.204038   4.277425   3.937250   6.388514
    20  H    3.693397   3.169742   4.145350   4.524438   6.752596
    21  H    3.990200   2.527739   2.347625   4.735195   5.714400
    22  H    4.338147   3.003218   3.183325   5.342849   6.722236
    23  H    4.463521   3.243310   3.672051   5.070950   6.751484
                    6          7          8          9         10
     6  H    0.000000
     7  H    1.776822   0.000000
     8  H    1.778154   1.779258   0.000000
     9  N    2.112211   2.089859   2.071034   0.000000
    10  H    2.503060   2.362264   2.935427   1.015075   0.000000
    11  H    2.358925   2.934944   2.430223   1.014632   1.639310
    12  Br   4.403968   3.024548   3.649491   2.885192   2.942288
    13  Br   4.908237   4.649075   4.382265   2.831783   2.979659
    14  H    4.151975   3.351222   2.483567   3.210149   4.033159
    15  N    5.786279   5.772390   4.480338   4.451756   5.262237
    16  C    6.729428   6.403216   5.385786   5.119310   5.788334
    17  C    6.580022   6.867456   5.404921   5.467974   6.289282
    18  H    6.411368   5.820211   5.027660   4.729520   5.339490
    19  H    7.179947   6.931392   6.024797   5.410953   5.950993
    20  H    7.595538   7.238342   6.137238   6.104358   6.816557
    21  H    6.082017   6.635140   5.081897   5.226728   6.069578
    22  H    7.271039   7.493052   5.953362   6.297976   7.171635
    23  H    7.274223   7.569714   6.222931   5.978227   6.692211
                   11         12         13         14         15
    11  H    0.000000
    12  Br   3.742856   0.000000
    13  Br   2.765646   3.226003   0.000000
    14  H    3.631982   2.878285   3.862017   0.000000
    15  N    4.131920   4.999863   3.457244   3.202866   0.000000
    16  C    4.974037   4.911806   3.472982   3.602826   1.447073
    17  C    4.938198   6.398760   4.517124   4.477800   1.447885
    18  H    4.798628   4.009474   3.184066   2.998804   2.083673
    19  H    5.177922   5.285262   3.262394   4.452574   2.097815
    20  H    5.970613   5.747740   4.560111   4.181838   2.086560
    21  H    4.565546   6.630009   4.714649   4.673155   2.082313
    22  H    5.837939   7.034922   5.466051   4.831150   2.107571
    23  H    5.395516   6.849820   4.559858   5.271917   2.078829
                   16         17         18         19         20
    16  C    0.000000
    17  C    2.445469   0.000000
    18  H    1.085755   3.367716   0.000000
    19  H    1.092361   2.769106   1.774479   0.000000
    20  H    1.093760   2.663894   1.775901   1.773310   0.000000
    21  H    3.353678   1.085892   4.154904   3.646354   3.701578
    22  H    2.853484   1.094359   3.766004   3.351278   2.646086
    23  H    2.591010   1.090941   3.626779   2.475746   2.804116
                   21         22         23
    21  H    0.000000
    22  H    1.772354   0.000000
    23  H    1.778348   1.772661   0.000000
 Stoichiometry    C6H12Br2N2O
 Framework group  C1[X(C6H12Br2N2O)]
 Deg. of freedom    63
 Full point group                 C1      NOp   1
 Largest Abelian subgroup         C1      NOp   1
 Largest concise Abelian subgroup C1      NOp   1
                         Standard orientation:                         
 ---------------------------------------------------------------------
 Center     Atomic      Atomic             Coordinates (Angstroms)
 Number     Number       Type             X           Y           Z
 ---------------------------------------------------------------------
      1          6           0       -0.370098    0.749279   -0.844401
      2          6           0       -1.761408    1.026552   -0.389931
      3          8           0       -2.049486    2.128372    0.086819
      4          6           0        0.559811    0.130518   -0.074771
      5          6           0        1.499085    2.525206    0.933289
      6          1           0        1.575256    3.198086    1.786309
      7          1           0        2.441675    2.520554    0.390829
      8          1           0        0.700355    2.866887    0.274129
      9          7           0        1.176322    1.168327    1.359269
     10          1           0        1.949842    0.723875    1.843529
     11          1           0        0.380292    1.174288    1.988379
     12         35           0        2.279000   -0.194325   -0.932371
     13         35           0        0.018988   -1.395301    1.031579
     14          1           0       -0.005997    1.417379   -1.614811
     15          7           0       -2.698310    0.061283   -0.532771
     16          6           0       -2.525142   -1.141267   -1.318841
     17          6           0       -4.037739    0.284045   -0.030101
     18          1           0       -1.525932   -1.164519   -1.742991
     19          1           0       -2.671933   -2.029657   -0.700401
     20          1           0       -3.259272   -1.159276   -2.129421
     21          1           0       -4.013818    1.031455    0.757279
     22          1           0       -4.706569    0.630427   -0.824021
     23          1           0       -4.430721   -0.652804    0.367429
 ---------------------------------------------------------------------
 Rotational constants (GHZ):           0.7876357           0.3975737           0.3531431
 Standard basis: def2TZVP (5D, 7F)
 There are   506 symmetry adapted cartesian basis functions of A   symmetry.
 There are   447 symmetry adapted basis functions of A   symmetry.
   447 basis functions,   783 primitive gaussians,   506 cartesian basis functions
    70 alpha electrons       70 beta electrons
       nuclear repulsion energy      1388.2213792933 Hartrees.
 NAtoms=   23 NActive=   23 NUniq=   23 SFac= 1.00D+00 NAtFMM=   60 NAOKFM=F Big=F
 Integral buffers will be    131072 words long.
 Raffenetti 2 integral format.
 Two-electron integral symmetry is turned on.
 Nuclear repulsion after empirical dispersion term =     1388.2041558526 Hartrees.
 Force inversion solution in PCM.
 ------------------------------------------------------------------------------
 Polarizable Continuum Model (PCM)
 =================================
 Model                : PCM.
 Atomic radii         : UFF (Universal Force Field).
 Polarization charges : Total charges.
 Charge compensation  : None.
 Solution method      : Matrix inversion.
 Cavity type          : Scaled VdW (van der Waals Surface) (Alpha=1.100).
 Cavity algorithm     : GePol (No added spheres)
                        Default sphere list used, NSphG=   23.
                        Lebedev-Laikov grids with approx.  5.0 points / Ang**2.
                        Smoothing algorithm: York/Karplus (Gamma=1.0000).
                        Polarization charges: spherical gaussians, with
                                              point-specific exponents (IZeta= 3).
                        Self-potential: point-specific (ISelfS= 7).
                        Self-field    : sphere-specific E.n sum rule (ISelfD= 2).
 1st derivatives      : Analytical E(r).r(x)/FMM algorithm (CHGder, D1EAlg=3).
                        Cavity 1st derivative terms included.
 2nd derivatives      : Analytical E(r).r(xy)/FMM algorithm (CHGder, D2EAlg=3).
                        Cavity 2nd derivative terms included.
 Solvent              : Water, Eps=  78.355300 Eps(inf)=   1.777849
 ------------------------------------------------------------------------------
 One-electron integrals computed using PRISM.
   1 Symmetry operations used in ECPInt.
 ECPInt:  NShTT=   16110 NPrTT=   54981 LenC2=   15151 LenP2D=   37575.
 LDataN:  DoStor=T MaxTD1= 6 Len=  172
 NBasis=   447 RedAO= T EigKep=  9.28D-05  NBF=   447
 NBsUse=   447 1.00D-06 EigRej= -1.00D+00 NBFU=   447
 ExpMin= 9.52D-02 ExpMax= 5.65D+05 ExpMxC= 5.46D+03 IAcc=3 IRadAn=         5 AccDes= 0.00D+00
 Harris functional with IExCor= 4639 and IRadAn=       5 diagonalized for initial guess.
 HarFok:  IExCor= 4639 AccDes= 0.00D+00 IRadAn=         5 IDoV= 1 UseB2=F ITyADJ=14
 ICtDFT=  3500011 ScaDFX=  1.000000  1.000000  1.000000  1.000000
 FoFCou: FMM=F IPFlag=           0 FMFlag=      100000 FMFlg1=           0
         NFxFlg=           0 DoJE=T BraDBF=F KetDBF=T FulRan=T
         wScrn=  0.000000 ICntrl=       500 IOpCl=  0 I1Cent=   200000004 NGrid=           0
         NMat0=    1 NMatS0=      1 NMatT0=    0 NMatD0=    1 NMtDS0=    0 NMtDT0=    0
 Petite list used in FoFCou.
 Requested convergence on RMS density matrix=1.00D-08 within 128 cycles.
 Requested convergence on MAX density matrix=1.00D-06.
 Requested convergence on             energy=1.00D-06.
 No special actions if energy rises.
 Inv3:  Mode=1 IEnd=    11059200.
 Iteration    1 A*A^-1 deviation from unit magnitude is 4.22D-15 for   1914.
 Iteration    1 A*A^-1 deviation from orthogonality  is 2.69D-15 for   1030    114.
 Iteration    1 A^-1*A deviation from unit magnitude is 4.44D-15 for   1914.
 Iteration    1 A^-1*A deviation from orthogonality  is 1.57D-15 for    823     10.
 Error on total polarization charges =  0.01530
 SCF Done:  E(RwB97XD) =  -5568.99185818     A.U. after   15 cycles
            NFock= 15  Conv=0.59D-08     -V/T= 2.0017
 DoSCS=F DFT=T ScalE2(SS,OS)=  1.000000  1.000000
 Range of M.O.s used for correlation:     1   447
 NBasis=   447 NAE=    70 NBE=    70 NFC=     0 NFV=     0
 NROrb=    447 NOA=    70 NOB=    70 NVA=   377 NVB=   377

 **** Warning!!: The largest alpha MO coefficient is  0.18774479D+02

   1 Symmetry operations used in ECPInt.
 ECPInt:  NShTT=   16110 NPrTT=   54981 LenC2=   15151 LenP2D=   37575.
 LDataN:  DoStor=T MaxTD1= 7 Len=  274
 Symmetrizing basis deriv contribution to polar:
 IMax=3 JMax=2 DiffMx= 0.00D+00
 G2DrvN: will do    24 centers at a time, making    1 passes.
 Calling FoFCou, ICntrl=  3107 FMM=F I1Cent=   0 AccDes= 0.00D+00.
 NEqPCM:  Using equilibrium solvation (IEInf=0, Eps=  78.3553, EpsInf=   1.7778)
 G2PCM: DoFxE=T DoFxN=T DoGrad=T DoDP/DQ/DG/TGxP=FFFF NFrqRd=   0 IEInf=0 SqF1=F DoCFld=F IF1Alg=4.
 End of G2Drv F.D. properties file   721 does not exist.
 End of G2Drv F.D. properties file   722 does not exist.
 End of G2Drv F.D. properties file   788 does not exist.
          IDoAtm=11111111111111111111111
 NEqPCM:  Using equilibrium solvation (IEInf=0, Eps=  78.3553, EpsInf=   1.7778)
          Differentiating once with respect to nuclear coordinates.
 CalDSu exits because no D1Ps are significant.
          There are    72 degrees of freedom in the 1st order CPHF.  IDoFFX=6 NUNeed=     0.
     66 vectors produced by pass  0 Test12= 3.67D-14 1.39D-09 XBig12= 1.36D-01 9.11D-02.
 AX will form    66 AO Fock derivatives at one time.
     66 vectors produced by pass  1 Test12= 3.67D-14 1.39D-09 XBig12= 1.98D-02 2.88D-02.
     66 vectors produced by pass  2 Test12= 3.67D-14 1.39D-09 XBig12= 7.57D-04 3.87D-03.
     66 vectors produced by pass  3 Test12= 3.67D-14 1.39D-09 XBig12= 1.24D-05 5.33D-04.
     66 vectors produced by pass  4 Test12= 3.67D-14 1.39D-09 XBig12= 1.34D-07 3.54D-05.
     66 vectors produced by pass  5 Test12= 3.67D-14 1.39D-09 XBig12= 1.12D-09 3.65D-06.
     66 vectors produced by pass  6 Test12= 3.67D-14 1.39D-09 XBig12= 8.78D-12 3.12D-07.
     29 vectors produced by pass  7 Test12= 3.67D-14 1.39D-09 XBig12= 6.39D-14 2.07D-08.
      4 vectors produced by pass  8 Test12= 3.67D-14 1.39D-09 XBig12= 8.03D-16 2.38D-09.
      3 vectors produced by pass  9 Test12= 3.67D-14 1.39D-09 XBig12= 1.82D-15 2.86D-09.
 InvSVY:  IOpt=1 It=  1 EMax= 4.44D-16
 Solved reduced A of dimension   498 with    72 vectors.
 End of Minotr F.D. properties file   721 does not exist.
 End of Minotr F.D. properties file   722 does not exist.
 End of Minotr F.D. properties file   788 does not exist.

 **********************************************************************

            Population analysis using the SCF density.

 **********************************************************************

 Orbital symmetries:
       Occupied  (A) (A) (A) (A) (A) (A) (A) (A) (A) (A) (A) (A)
                 (A) (A) (A) (A) (A) (A) (A) (A) (A) (A) (A) (A)
                 (A) (A) (A) (A) (A) (A) (A) (A) (A) (A) (A) (A)
                 (A) (A) (A) (A) (A) (A) (A) (A) (A) (A) (A) (A)
                 (A) (A) (A) (A) (A) (A) (A) (A) (A) (A) (A) (A)
                 (A) (A) (A) (A) (A) (A) (A) (A) (A) (A)
       Virtual   (A) (A) (A) (A) (A) (A) (A) (A) (A) (A) (A) (A)
                 (A) (A) (A) (A) (A) (A) (A) (A) (A) (A) (A) (A)
                 (A) (A) (A) (A) (A) (A) (A) (A) (A) (A) (A) (A)
                 (A) (A) (A) (A) (A) (A) (A) (A) (A) (A) (A) (A)
                 (A) (A) (A) (A) (A) (A) (A) (A) (A) (A) (A) (A)
                 (A) (A) (A) (A) (A) (A) (A) (A) (A) (A) (A) (A)
                 (A) (A) (A) (A) (A) (A) (A) (A) (A) (A) (A) (A)
                 (A) (A) (A) (A) (A) (A) (A) (A) (A) (A) (A) (A)
                 (A) (A) (A) (A) (A) (A) (A) (A) (A) (A) (A) (A)
                 (A) (A) (A) (A) (A) (A) (A) (A) (A) (A) (A) (A)
                 (A) (A) (A) (A) (A) (A) (A) (A) (A) (A) (A) (A)
                 (A) (A) (A) (A) (A) (A) (A) (A) (A) (A) (A) (A)
                 (A) (A) (A) (A) (A) (A) (A) (A) (A) (A) (A) (A)
                 (A) (A) (A) (A) (A) (A) (A) (A) (A) (A) (A) (A)
                 (A) (A) (A) (A) (A) (A) (A) (A) (A) (A) (A) (A)
                 (A) (A) (A) (A) (A) (A) (A) (A) (A) (A) (A) (A)
                 (A) (A) (A) (A) (A) (A) (A) (A) (A) (A) (A) (A)
                 (A) (A) (A) (A) (A) (A) (A) (A) (A) (A) (A) (A)
                 (A) (A) (A) (A) (A) (A) (A) (A) (A) (A) (A) (A)
                 (A) (A) (A) (A) (A) (A) (A) (A) (A) (A) (A) (A)
                 (A) (A) (A) (A) (A) (A) (A) (A) (A) (A) (A) (A)
                 (A) (A) (A) (A) (A) (A) (A) (A) (A) (A) (A) (A)
                 (A) (A) (A) (A) (A) (A) (A) (A) (A) (A) (A) (A)
                 (A) (A) (A) (A) (A) (A) (A) (A) (A) (A) (A) (A)
                 (A) (A) (A) (A) (A) (A) (A) (A) (A) (A) (A) (A)
                 (A) (A) (A) (A) (A) (A) (A) (A) (A) (A) (A) (A)
                 (A) (A) (A) (A) (A) (A) (A) (A) (A) (A) (A) (A)
                 (A) (A) (A) (A) (A) (A) (A) (A) (A) (A) (A) (A)
                 (A) (A) (A) (A) (A) (A) (A) (A) (A) (A) (A) (A)
                 (A) (A) (A) (A) (A) (A) (A) (A) (A) (A) (A) (A)
                 (A) (A) (A) (A) (A) (A) (A) (A) (A) (A) (A) (A)
                 (A) (A) (A) (A) (A)
 The electronic state is 1-A.
 Alpha  occ. eigenvalues -- -483.13430-483.13411 -62.68280 -62.68262 -56.47400
 Alpha  occ. eigenvalues --  -56.47379 -56.47036 -56.47031 -56.47022 -56.47013
 Alpha  occ. eigenvalues --  -19.20756 -14.48970 -14.46316 -10.42709 -10.38386
 Alpha  occ. eigenvalues --  -10.31531 -10.30606 -10.30494 -10.25756  -8.82391
 Alpha  occ. eigenvalues --   -8.82370  -6.64554  -6.64520  -6.63396  -6.63389
 Alpha  occ. eigenvalues --   -6.63384  -6.63363  -2.74936  -2.74903  -2.74604
 Alpha  occ. eigenvalues --   -2.74595  -2.74584  -2.74564  -2.73659  -2.73658
 Alpha  occ. eigenvalues --   -2.73649  -2.73648  -1.13530  -1.04912  -1.03462
 Alpha  occ. eigenvalues --   -0.94755  -0.87294  -0.84559  -0.81402  -0.78999
 Alpha  occ. eigenvalues --   -0.78619  -0.67925  -0.63777  -0.62394  -0.58594
 Alpha  occ. eigenvalues --   -0.57991  -0.57014  -0.55987  -0.54320  -0.52684
 Alpha  occ. eigenvalues --   -0.50111  -0.48440  -0.48382  -0.48143  -0.47177
 Alpha  occ. eigenvalues --   -0.45891  -0.45732  -0.43811  -0.39616  -0.38082
 Alpha  occ. eigenvalues --   -0.37206  -0.36450  -0.34890  -0.32154  -0.27411
 Alpha virt. eigenvalues --    0.02421   0.06384   0.09081   0.10410   0.11385
 Alpha virt. eigenvalues --    0.12608   0.14639   0.15251   0.16578   0.17215
 Alpha virt. eigenvalues --    0.17837   0.18947   0.19479   0.19908   0.20641
 Alpha virt. eigenvalues --    0.21272   0.21364   0.22481   0.23213   0.24939
 Alpha virt. eigenvalues --    0.25083   0.25762   0.26736   0.26924   0.29560
 Alpha virt. eigenvalues --    0.30053   0.30482   0.30863   0.31995   0.32788
 Alpha virt. eigenvalues --    0.33009   0.33794   0.33957   0.34527   0.36075
 Alpha virt. eigenvalues --    0.36964   0.37740   0.38417   0.38685   0.40318
 Alpha virt. eigenvalues --    0.40635   0.41431   0.42627   0.44151   0.45040
 Alpha virt. eigenvalues --    0.46420   0.47094   0.47464   0.48913   0.49804
 Alpha virt. eigenvalues --    0.50416   0.50870   0.51235   0.51956   0.52680
 Alpha virt. eigenvalues --    0.53561   0.53747   0.54892   0.55163   0.55785
 Alpha virt. eigenvalues --    0.56207   0.57234   0.57898   0.58404   0.59098
 Alpha virt. eigenvalues --    0.59735   0.60280   0.61436   0.62691   0.63593
 Alpha virt. eigenvalues --    0.64469   0.64674   0.65884   0.67088   0.69695
 Alpha virt. eigenvalues --    0.70406   0.70678   0.71038   0.73820   0.75042
 Alpha virt. eigenvalues --    0.75499   0.76908   0.78434   0.80628   0.82705
 Alpha virt. eigenvalues --    0.84207   0.85432   0.89588   0.90579   0.92107
 Alpha virt. eigenvalues --    0.93206   0.94248   0.96184   0.97065   0.98555
 Alpha virt. eigenvalues --    1.00569   1.02699   1.03922   1.05737   1.06820
 Alpha virt. eigenvalues --    1.07157   1.08476   1.09461   1.10549   1.11978
 Alpha virt. eigenvalues --    1.13325   1.14092   1.14488   1.14758   1.16485
 Alpha virt. eigenvalues --    1.20239   1.21170   1.22461   1.23521   1.29268
 Alpha virt. eigenvalues --    1.29817   1.33354   1.34283   1.35402   1.38011
 Alpha virt. eigenvalues --    1.40540   1.41605   1.43126   1.44105   1.45014
 Alpha virt. eigenvalues --    1.46546   1.47036   1.48893   1.49492   1.50785
 Alpha virt. eigenvalues --    1.51088   1.51537   1.52967   1.53263   1.54404
 Alpha virt. eigenvalues --    1.56863   1.57604   1.59030   1.59512   1.59764
 Alpha virt. eigenvalues --    1.60349   1.61406   1.61894   1.62947   1.63303
 Alpha virt. eigenvalues --    1.64140   1.64238   1.64543   1.64953   1.66484
 Alpha virt. eigenvalues --    1.66666   1.67298   1.68146   1.69416   1.70315
 Alpha virt. eigenvalues --    1.71356   1.72295   1.72924   1.73019   1.73634
 Alpha virt. eigenvalues --    1.75424   1.76160   1.77143   1.78130   1.80253
 Alpha virt. eigenvalues --    1.81152   1.82981   1.84424   1.84752   1.86516
 Alpha virt. eigenvalues --    1.87057   1.87892   1.88656   1.91339   1.92425
 Alpha virt. eigenvalues --    1.93636   1.96445   1.96995   1.98268   1.98947
 Alpha virt. eigenvalues --    2.00643   2.01802   2.03619   2.04377   2.07396
 Alpha virt. eigenvalues --    2.07817   2.08321   2.09267   2.12750   2.13356
 Alpha virt. eigenvalues --    2.15947   2.16642   2.18919   2.21684   2.23393
 Alpha virt. eigenvalues --    2.24500   2.26992   2.28217   2.30113   2.31919
 Alpha virt. eigenvalues --    2.35059   2.36622   2.37331   2.39601   2.40146
 Alpha virt. eigenvalues --    2.42100   2.42682   2.43162   2.46121   2.48120
 Alpha virt. eigenvalues --    2.49757   2.50605   2.52124   2.53781   2.55759
 Alpha virt. eigenvalues --    2.57608   2.60512   2.63142   2.63261   2.63838
 Alpha virt. eigenvalues --    2.65065   2.66212   2.66476   2.68762   2.70397
 Alpha virt. eigenvalues --    2.70937   2.72003   2.74548   2.75566   2.78822
 Alpha virt. eigenvalues --    2.79747   2.81717   2.83806   2.85033   2.86282
 Alpha virt. eigenvalues --    2.88711   2.90390   2.92528   2.96166   2.98120
 Alpha virt. eigenvalues --    2.99426   3.04182   3.05824   3.06276   3.09420
 Alpha virt. eigenvalues --    3.09941   3.10562   3.12917   3.14619   3.16080
 Alpha virt. eigenvalues --    3.17547   3.18147   3.20790   3.21630   3.22843
 Alpha virt. eigenvalues --    3.24508   3.25805   3.26349   3.27252   3.28668
 Alpha virt. eigenvalues --    3.30627   3.32480   3.33164   3.35017   3.38797
 Alpha virt. eigenvalues --    3.39542   3.42103   3.42615   3.43222   3.43480
 Alpha virt. eigenvalues --    3.45220   3.47630   3.49223   3.52091   3.54190
 Alpha virt. eigenvalues --    3.55030   3.56606   3.57090   3.59357   3.61091
 Alpha virt. eigenvalues --    3.61782   3.63204   3.64143   3.66624   3.68278
 Alpha virt. eigenvalues --    3.69101   3.71127   3.73883   3.76514   3.78970
 Alpha virt. eigenvalues --    3.82135   3.84733   3.87521   3.87720   3.92383
 Alpha virt. eigenvalues --    3.93060   3.97324   4.04957   4.06110   4.10211
 Alpha virt. eigenvalues --    4.11725   4.14185   4.16890   4.17881   4.19499
 Alpha virt. eigenvalues --    4.20384   4.21811   4.25480   4.25748   4.27020
 Alpha virt. eigenvalues --    4.30524   4.31748   4.33102   4.34403   4.38461
 Alpha virt. eigenvalues --    4.40022   4.43044   4.44206   4.46083   4.47829
 Alpha virt. eigenvalues --    4.50443   4.52807   4.54652   4.57891   4.59749
 Alpha virt. eigenvalues --    4.66537   4.71104   4.74527   4.81182   4.84598
 Alpha virt. eigenvalues --    4.91239   4.94934   4.97327   4.98985   5.02564
 Alpha virt. eigenvalues --    5.06872   5.09444   5.10953   5.12461   5.16614
 Alpha virt. eigenvalues --    5.21123   5.23795   5.27288   5.29636   5.34213
 Alpha virt. eigenvalues --    5.35350   5.38662   5.40201   5.43290   5.50351
 Alpha virt. eigenvalues --    5.57375   5.61790   5.72100   5.77339   5.79740
 Alpha virt. eigenvalues --    5.85553   5.87071   6.07129   6.22244   6.42980
 Alpha virt. eigenvalues --    6.51729   6.67762   6.79833   6.93671   7.17447
 Alpha virt. eigenvalues --    7.20763   7.74955   7.77382  22.38480  22.48266
 Alpha virt. eigenvalues --   22.52872  22.60541  22.87004  23.51638  32.17306
 Alpha virt. eigenvalues --   32.88730  44.05873
          Condensed to atoms (all electrons):
               1          2          3          4          5          6
     1  C    5.925141   0.262166  -0.123649   0.418482  -0.000919  -0.000664
     2  C    0.262166   4.538190   0.657720  -0.034121  -0.005777   0.000358
     3  O   -0.123649   0.657720   8.094776  -0.008260  -0.004818  -0.000126
     4  C    0.418482  -0.034121  -0.008260   4.905573  -0.026814   0.002769
     5  C   -0.000919  -0.005777  -0.004818  -0.026814   4.905169   0.407157
     6  H   -0.000664   0.000358  -0.000126   0.002769   0.407157   0.497587
     7  H   -0.005059   0.000821   0.000372   0.001201   0.412237  -0.016400
     8  H    0.016807  -0.006290   0.012196  -0.002562   0.406572  -0.021120
     9  N   -0.074060   0.032634   0.006199  -0.029572   0.238991  -0.020527
    10  H    0.008282  -0.000978  -0.000046  -0.009931  -0.021874  -0.003000
    11  H   -0.011748  -0.000527   0.001967   0.008186  -0.017309  -0.006144
    12  Br  -0.091798  -0.001454  -0.000568   0.346678  -0.003119   0.000282
    13  Br  -0.115447   0.003036  -0.000476   0.363455   0.005614  -0.000402
    14  H    0.430657  -0.032316   0.002348  -0.049846  -0.002944   0.000149
    15  N   -0.133650   0.412481  -0.134381   0.007420  -0.000630   0.000005
    16  C   -0.038664  -0.053812   0.001647  -0.000179  -0.000031  -0.000001
    17  C    0.008261  -0.073206  -0.008750  -0.000280  -0.000021   0.000002
    18  H    0.005998  -0.011791   0.000339  -0.005506   0.000007   0.000001
    19  H   -0.000808   0.006380  -0.000088   0.001141  -0.000000  -0.000000
    20  H   -0.000014  -0.002593   0.000222  -0.000089  -0.000001   0.000000
    21  H    0.002152  -0.012856   0.017733   0.000277   0.000032  -0.000002
    22  H   -0.000996  -0.003985   0.000604  -0.000112  -0.000000   0.000000
    23  H    0.000992   0.011502   0.002080   0.000080   0.000001  -0.000000
               7          8          9         10         11         12
     1  C   -0.005059   0.016807  -0.074060   0.008282  -0.011748  -0.091798
     2  C    0.000821  -0.006290   0.032634  -0.000978  -0.000527  -0.001454
     3  O    0.000372   0.012196   0.006199  -0.000046   0.001967  -0.000568
     4  C    0.001201  -0.002562  -0.029572  -0.009931   0.008186   0.346678
     5  C    0.412237   0.406572   0.238991  -0.021874  -0.017309  -0.003119
     6  H   -0.016400  -0.021120  -0.020527  -0.003000  -0.006144   0.000282
     7  H    0.503251  -0.020902  -0.033984  -0.006654   0.005416   0.003322
     8  H   -0.020902   0.506863  -0.045581   0.005857  -0.002861   0.000477
     9  N   -0.033984  -0.045581   6.686583   0.352067   0.344674  -0.067465
    10  H   -0.006654   0.005857   0.352067   0.401248  -0.020955   0.000699
    11  H    0.005416  -0.002861   0.344674  -0.020955   0.412089   0.005116
    12  Br   0.003322   0.000477  -0.067465   0.000699   0.005116  34.978894
    13  Br   0.000139   0.001279  -0.085746   0.002743   0.000072  -0.059319
    14  H    0.000417  -0.000155   0.000206  -0.000144  -0.000142  -0.008017
    15  N    0.000025   0.000838   0.000154  -0.000034  -0.000389  -0.000290
    16  C    0.000003   0.000034  -0.000596   0.000011   0.000144   0.000092
    17  C   -0.000000  -0.000038   0.000133  -0.000006  -0.000026   0.000024
    18  H   -0.000004  -0.000017   0.000222  -0.000002  -0.000037   0.001531
    19  H    0.000000   0.000001   0.000025   0.000001   0.000022   0.000022
    20  H   -0.000000  -0.000001   0.000018  -0.000000  -0.000005  -0.000033
    21  H   -0.000000  -0.000033  -0.000044   0.000001   0.000055   0.000007
    22  H   -0.000000   0.000000   0.000002  -0.000000  -0.000005  -0.000001
    23  H   -0.000000  -0.000001  -0.000016   0.000000   0.000011   0.000003
              13         14         15         16         17         18
     1  C   -0.115447   0.430657  -0.133650  -0.038664   0.008261   0.005998
     2  C    0.003036  -0.032316   0.412481  -0.053812  -0.073206  -0.011791
     3  O   -0.000476   0.002348  -0.134381   0.001647  -0.008750   0.000339
     4  C    0.363455  -0.049846   0.007420  -0.000179  -0.000280  -0.005506
     5  C    0.005614  -0.002944  -0.000630  -0.000031  -0.000021   0.000007
     6  H   -0.000402   0.000149   0.000005  -0.000001   0.000002   0.000001
     7  H    0.000139   0.000417   0.000025   0.000003  -0.000000  -0.000004
     8  H    0.001279  -0.000155   0.000838   0.000034  -0.000038  -0.000017
     9  N   -0.085746   0.000206   0.000154  -0.000596   0.000133   0.000222
    10  H    0.002743  -0.000144  -0.000034   0.000011  -0.000006  -0.000002
    11  H    0.000072  -0.000142  -0.000389   0.000144  -0.000026  -0.000037
    12  Br  -0.059319  -0.008017  -0.000290   0.000092   0.000024   0.001531
    13  Br  34.988312   0.006068   0.001722  -0.004234   0.001841  -0.002137
    14  H    0.006068   0.483422   0.002469   0.000245  -0.000141   0.000285
    15  N    0.001722   0.002469   6.649517   0.269828   0.274352  -0.031329
    16  C   -0.004234   0.000245   0.269828   4.933188  -0.053790   0.416623
    17  C    0.001841  -0.000141   0.274352  -0.053790   4.904291   0.007305
    18  H   -0.002137   0.000285  -0.031329   0.416623   0.007305   0.495366
    19  H   -0.000757  -0.000190  -0.053319   0.430222  -0.010938  -0.024575
    20  H    0.000953   0.000239  -0.035270   0.396712   0.003431  -0.014088
    21  H   -0.000010  -0.000100  -0.035515   0.007368   0.403192  -0.000344
    22  H   -0.000003   0.000075  -0.039055  -0.005375   0.427886  -0.000007
    23  H    0.000156  -0.000017  -0.044544  -0.004526   0.398332   0.000225
              19         20         21         22         23
     1  C   -0.000808  -0.000014   0.002152  -0.000996   0.000992
     2  C    0.006380  -0.002593  -0.012856  -0.003985   0.011502
     3  O   -0.000088   0.000222   0.017733   0.000604   0.002080
     4  C    0.001141  -0.000089   0.000277  -0.000112   0.000080
     5  C   -0.000000  -0.000001   0.000032  -0.000000   0.000001
     6  H   -0.000000   0.000000  -0.000002   0.000000  -0.000000
     7  H    0.000000  -0.000000  -0.000000  -0.000000  -0.000000
     8  H    0.000001  -0.000001  -0.000033   0.000000  -0.000001
     9  N    0.000025   0.000018  -0.000044   0.000002  -0.000016
    10  H    0.000001  -0.000000   0.000001  -0.000000   0.000000
    11  H    0.000022  -0.000005   0.000055  -0.000005   0.000011
    12  Br   0.000022  -0.000033   0.000007  -0.000001   0.000003
    13  Br  -0.000757   0.000953  -0.000010  -0.000003   0.000156
    14  H   -0.000190   0.000239  -0.000100   0.000075  -0.000017
    15  N   -0.053319  -0.035270  -0.035515  -0.039055  -0.044544
    16  C    0.430222   0.396712   0.007368  -0.005375  -0.004526
    17  C   -0.010938   0.003431   0.403192   0.427886   0.398332
    18  H   -0.024575  -0.014088  -0.000344  -0.000007   0.000225
    19  H    0.539358  -0.035372   0.000757  -0.001395   0.005357
    20  H   -0.035372   0.548454  -0.000629   0.005298  -0.005025
    21  H    0.000757  -0.000629   0.517967  -0.028363  -0.014141
    22  H   -0.001395   0.005298  -0.028363   0.541676  -0.034060
    23  H    0.005357  -0.005025  -0.014141  -0.034060   0.547824
 Mulliken charges:
               1
     1  C   -0.481460
     2  C    0.314417
     3  O   -0.517043
     4  C    0.112012
     5  C   -0.291522
     6  H    0.160075
     7  H    0.155800
     8  H    0.148638
     9  N   -0.304317
    10  H    0.292716
    11  H    0.282397
    12  Br  -0.105083
    13  Br  -0.106859
    14  H    0.167431
    15  N   -0.110402
    16  C   -0.294908
    17  C   -0.281854
    18  H    0.161935
    19  H    0.144155
    20  H    0.137792
    21  H    0.142497
    22  H    0.137814
    23  H    0.135768
 Sum of Mulliken charges =  -0.00000
 Mulliken charges with hydrogens summed into heavy atoms:
               1
     1  C   -0.314028
     2  C    0.314417
     3  O   -0.517043
     4  C    0.112012
     5  C    0.172991
     9  N    0.270796
    12  Br  -0.105083
    13  Br  -0.106859
    15  N   -0.110402
    16  C    0.148975
    17  C    0.134224
 APT charges:
               1
     1  C   -0.574494
     2  C   -0.303447
     3  O   -0.110287
     4  C   -0.505414
     5  C   -1.197182
     6  H    0.693062
     7  H    0.434921
     8  H    0.169001
     9  N   -0.681462
    10  H    0.645315
    11  H    0.439845
    12  Br   0.136984
    13  Br   0.074014
    14  H    0.449268
    15  N    0.176122
    16  C   -0.953859
    17  C   -1.422698
    18  H    0.017387
    19  H    0.354970
    20  H    0.676626
    21  H    0.330408
    22  H    0.663759
    23  H    0.487161
 Sum of APT charges =  -0.00000
 APT charges with hydrogens summed into heavy atoms:
               1
     1  C   -0.125227
     2  C   -0.303447
     3  O   -0.110287
     4  C   -0.505414
     5  C    0.099802
     9  N    0.403699
    12  Br   0.136984
    13  Br   0.074014
    15  N    0.176122
    16  C    0.095125
    17  C    0.058630
 Electronic spatial extent (au):  <R**2>=           3316.9453
 Charge=              0.0000 electrons
 Dipole moment (field-independent basis, Debye):
    X=              1.7075    Y=             -0.6125    Z=              2.7093  Tot=              3.2605
 Quadrupole moment (field-independent basis, Debye-Ang):
   XX=            -84.6336   YY=            -97.0628   ZZ=            -85.4384
   XY=             15.6546   XZ=              7.5779   YZ=              4.3094
 Traceless Quadrupole moment (field-independent basis, Debye-Ang):
   XX=              4.4114   YY=             -8.0179   ZZ=              3.6065
   XY=             15.6546   XZ=              7.5779   YZ=              4.3094
 Octapole moment (field-independent basis, Debye-Ang**2):
  XXX=             41.8675  YYY=            -54.0465  ZZZ=             22.7541  XYY=             48.9173
  XXY=            -28.5093  XXZ=              2.9813  XZZ=             25.0600  YZZ=             -4.1457
  YYZ=              9.8188  XYZ=              6.6718
 Hexadecapole moment (field-independent basis, Debye-Ang**3):
 XXXX=          -2155.7230 YYYY=           -984.1718 ZZZZ=           -551.3880 XXXY=             43.8965
 XXXZ=            -27.0258 YYYX=             76.4668 YYYZ=            -21.1450 ZZZX=            -33.2316
 ZZZY=            -13.1097 XXYY=           -580.7924 XXZZ=           -454.1530 YYZZ=           -233.6187
 XXYZ=              2.1700 YYXZ=             -4.9881 ZZXY=              6.5054
 N-N= 1.388204155853D+03 E-N=-1.606224633055D+04  KE= 5.559794549730D+03
  Exact polarizability:   0.000   0.000   0.000   0.000   0.000   0.000
 Approx polarizability: 162.163   4.819 157.586   1.140   0.400 146.727
   1 Symmetry operations used in ECPInt.
 ECPInt:  NShTT=   16110 NPrTT=   54981 LenC2=   15151 LenP2D=   37575.
 LDataN:  DoStor=T MaxTD1= 8 Len=  415
 D2PCM: PCM CHGder 2nd derivatives, FixD1E=F FixD2E=F DoIter=F DoCFld=F I1PDM=0
 Calling FoFJK, ICntrl=    100147 FMM=F ISym2X=0 I1Cent= 0 IOpClX= 0 NMat=1 NMatS=1 NMatT=0.
 ***** Axes restored to original set *****
 -------------------------------------------------------------------
 Center     Atomic                   Forces (Hartrees/Bohr)
 Number     Number              X              Y              Z
 -------------------------------------------------------------------
      1        6           0.000055477   -0.000062382   -0.000050252
      2        6           0.000023098    0.000144346   -0.000034434
      3        8          -0.000011060   -0.000046836    0.000001364
      4        6          -0.005483495   -0.009079408   -0.012722691
      5        6          -0.000008576   -0.000019872   -0.000023475
      6        1          -0.000005889   -0.000003855   -0.000001387
      7        1           0.000015980   -0.000007839   -0.000002281
      8        1          -0.000003093    0.000009920    0.000005448
      9        7           0.005414322    0.009018115    0.012687939
     10        1          -0.000003799    0.000034034   -0.000008310
     11        1           0.000002437    0.000030931   -0.000029270
     12       35           0.000017391    0.000005336    0.000021531
     13       35           0.000055414    0.000054741    0.000100998
     14        1           0.000028591    0.000034884    0.000033665
     15        7           0.000008150   -0.000072620    0.000051214
     16        6          -0.000065673   -0.000036482   -0.000009603
     17        6          -0.000037211    0.000005872   -0.000035354
     18        1          -0.000008127    0.000027053   -0.000005327
     19        1          -0.000000852   -0.000007581    0.000008192
     20        1          -0.000001877   -0.000013312    0.000012249
     21        1          -0.000007420   -0.000008953    0.000003745
     22        1           0.000033505   -0.000000205   -0.000004081
     23        1          -0.000017294   -0.000005887    0.000000119
 -------------------------------------------------------------------
 Cartesian Forces:  Max     0.012722691 RMS     0.002813206
 FormGI is forming the generalized inverse of G from B-inverse, IUseBI=4.

 GradGradGradGradGradGradGradGradGradGradGradGradGradGradGradGradGradGrad
 Berny optimization.
 Internal  Forces:  Max     0.016455332 RMS     0.001606351
 Search for a saddle point.
 Step number   1 out of a maximum of   70
 All quantities printed in internal units (Hartrees-Bohrs-Radians)
 Swapping is turned off.
 Second derivative matrix not updated -- analytic derivatives used.
 ITU=  0
     Eigenvalues ---   -0.03012  -0.00030   0.00042   0.00127   0.00207
     Eigenvalues ---    0.00391   0.00733   0.00844   0.01174   0.02410
     Eigenvalues ---    0.03068   0.03582   0.04598   0.04794   0.05059
     Eigenvalues ---    0.05402   0.05888   0.05972   0.06103   0.06167
     Eigenvalues ---    0.06292   0.07667   0.08346   0.10710   0.12693
     Eigenvalues ---    0.13075   0.13203   0.13362   0.14674   0.15023
     Eigenvalues ---    0.15878   0.16269   0.16303   0.17679   0.17863
     Eigenvalues ---    0.18023   0.18110   0.19526   0.20193   0.22335
     Eigenvalues ---    0.22756   0.25663   0.25939   0.29405   0.33051
     Eigenvalues ---    0.33168   0.33549   0.33968   0.34131   0.34518
     Eigenvalues ---    0.35096   0.35430   0.35493   0.36204   0.36792
     Eigenvalues ---    0.38173   0.38661   0.42940   0.44888   0.45019
     Eigenvalues ---    0.49824   0.55248   0.76034
 Eigenvectors required to have negative eigenvalues:
                          R6        R8        D7        D9        R7
   1                    0.89777  -0.17817  -0.17543   0.12736  -0.11970
                          A7        D10       A10       R2        A19
   1                   -0.11386  -0.11048  -0.07606  -0.07589  -0.07550
 RFO step:  Lambda0=6.055702321D-03 Lambda=-1.43515480D-03.
 Linear search not attempted -- option 19 set.
 Maximum step size (   0.010) exceeded in Quadratic search.
    -- Step size scaled by   0.029
 Iteration  1 RMS(Cart)=  0.00324220 RMS(Int)=  0.00000341
 Iteration  2 RMS(Cart)=  0.00000489 RMS(Int)=  0.00000061
 Iteration  3 RMS(Cart)=  0.00000000 RMS(Int)=  0.00000061
 Variable       Old X    -DE/DX   Delta X   Delta X   Delta X     New X
                                 (Linear)    (Quad)   (Total)
    R1        2.81510   0.00008   0.00000  -0.00033  -0.00033   2.81477
    R2        2.56330   0.00001   0.00000   0.00100   0.00100   2.56429
    R3        2.04620   0.00001   0.00000   0.00004   0.00004   2.04623
    R4        2.33309  -0.00004   0.00000   0.00018   0.00018   2.33328
    R5        2.55633   0.00014   0.00000   0.00026   0.00026   2.55658
    R6        3.54222   0.01646   0.00000  -0.00885  -0.00885   3.53337
    R7        3.68211   0.00001   0.00000   0.00127   0.00127   3.68339
    R8        3.70532  -0.00000   0.00000   0.00238   0.00238   3.70770
    R9        2.05816  -0.00000   0.00000  -0.00011  -0.00011   2.05805
   R10        2.05517   0.00001   0.00000  -0.00008  -0.00008   2.05508
   R11        2.06076  -0.00000   0.00000  -0.00013  -0.00013   2.06063
   R12        2.75586  -0.00003   0.00000   0.00042   0.00042   2.75628
   R13        1.91821  -0.00002   0.00000   0.00010   0.00010   1.91831
   R14        1.91738  -0.00002   0.00000   0.00011   0.00011   1.91749
   R15        2.73457   0.00001   0.00000  -0.00004  -0.00004   2.73453
   R16        2.73611   0.00002   0.00000  -0.00004  -0.00004   2.73606
   R17        2.05178  -0.00001   0.00000   0.00000   0.00000   2.05178
   R18        2.06426   0.00001   0.00000   0.00000   0.00000   2.06426
   R19        2.06691  -0.00000   0.00000   0.00004   0.00004   2.06695
   R20        2.05204  -0.00000   0.00000  -0.00000  -0.00000   2.05204
   R21        2.06804  -0.00002   0.00000   0.00003   0.00003   2.06807
   R22        2.06158   0.00001   0.00000   0.00002   0.00002   2.06160
    A1        2.15566   0.00001   0.00000  -0.00030  -0.00030   2.15536
    A2        2.00014   0.00001   0.00000  -0.00045  -0.00045   1.99968
    A3        2.04276  -0.00004   0.00000  -0.00092  -0.00092   2.04184
    A4        2.09652  -0.00001   0.00000   0.00022   0.00022   2.09674
    A5        2.07353   0.00008   0.00000   0.00022   0.00022   2.07375
    A6        2.11294  -0.00007   0.00000  -0.00044  -0.00044   2.11250
    A7        1.98996   0.00009   0.00000   0.00144   0.00144   1.99140
    A8        2.01661  -0.00001   0.00000  -0.00092  -0.00092   2.01569
    A9        2.07834   0.00010   0.00000  -0.00049  -0.00049   2.07785
   A10        1.71008  -0.00005   0.00000   0.00117   0.00117   1.71125
   A11        1.66081  -0.00019   0.00000   0.00050   0.00050   1.66131
   A12        1.94118  -0.00000   0.00000  -0.00088  -0.00089   1.94029
   A13        1.90995   0.00001   0.00000   0.00028   0.00028   1.91023
   A14        1.90823  -0.00000   0.00000   0.00040   0.00040   1.90863
   A15        1.94071  -0.00002   0.00000  -0.00096  -0.00096   1.93975
   A16        1.91204   0.00001   0.00000   0.00046   0.00046   1.91249
   A17        1.91085  -0.00001   0.00000  -0.00002  -0.00002   1.91084
   A18        1.88176   0.00001   0.00000  -0.00016  -0.00016   1.88161
   A19        1.94385  -0.00001   0.00000   0.00095   0.00095   1.94480
   A20        1.95324   0.00002   0.00000  -0.00138  -0.00138   1.95186
   A21        1.79217   0.00000   0.00000   0.00057   0.00057   1.79274
   A22        1.95852  -0.00002   0.00000   0.00009   0.00009   1.95862
   A23        1.92760  -0.00000   0.00000  -0.00019  -0.00019   1.92742
   A24        1.88034   0.00001   0.00000  -0.00004  -0.00004   1.88030
   A25        2.17422   0.00009   0.00000  -0.00001  -0.00001   2.17421
   A26        2.08779  -0.00000   0.00000  -0.00002  -0.00002   2.08777
   A27        2.01213  -0.00009   0.00000  -0.00014  -0.00014   2.01200
   A28        1.91785  -0.00003   0.00000  -0.00013  -0.00013   1.91772
   A29        1.93075   0.00001   0.00000   0.00012   0.00012   1.93087
   A30        1.91339   0.00000   0.00000  -0.00003  -0.00003   1.91337
   A31        1.90437   0.00002   0.00000   0.00001   0.00001   1.90438
   A32        1.90481   0.00000   0.00000   0.00007   0.00007   1.90488
   A33        1.89229  -0.00001   0.00000  -0.00005  -0.00005   1.89224
   A34        1.91479   0.00002   0.00000   0.00002   0.00002   1.91482
   A35        1.94144  -0.00004   0.00000   0.00007   0.00007   1.94151
   A36        1.90459   0.00002   0.00000   0.00002   0.00002   1.90460
   A37        1.89826   0.00001   0.00000  -0.00007  -0.00007   1.89819
   A38        1.91218  -0.00001   0.00000   0.00000   0.00000   1.91218
   A39        1.89232   0.00001   0.00000  -0.00004  -0.00004   1.89227
    D1        1.66927  -0.00005   0.00000   0.00086   0.00086   1.67013
    D2       -1.49299  -0.00003   0.00000   0.00075   0.00075  -1.49224
    D3       -1.02784  -0.00001   0.00000   0.00521   0.00521  -1.02263
    D4        2.09309   0.00001   0.00000   0.00511   0.00511   2.09819
    D5       -1.23083   0.00003   0.00000   0.00367   0.00367  -1.22716
    D6        3.09026   0.00003   0.00000   0.00176   0.00176   3.09202
    D7        0.70867  -0.00009   0.00000   0.00511   0.00511   0.71377
    D8        1.45634   0.00000   0.00000  -0.00067  -0.00067   1.45567
    D9       -0.50576   0.00001   0.00000  -0.00258  -0.00258  -0.50834
   D10       -2.88735  -0.00011   0.00000   0.00077   0.00077  -2.88658
   D11       -0.21056  -0.00004   0.00000  -0.00213  -0.00213  -0.21269
   D12        3.08217  -0.00001   0.00000  -0.00078  -0.00078   3.08139
   D13        2.91017  -0.00002   0.00000  -0.00224  -0.00224   2.90793
   D14       -0.08029   0.00001   0.00000  -0.00088  -0.00088  -0.08117
   D15       -0.80954   0.00000   0.00000  -0.00111  -0.00111  -0.81066
   D16       -3.01768   0.00002   0.00000  -0.00090  -0.00090  -3.01858
   D17        1.25343  -0.00000   0.00000  -0.00057  -0.00057   1.25287
   D18        1.33067   0.00001   0.00000  -0.00082  -0.00082   1.32985
   D19       -0.87747   0.00002   0.00000  -0.00061  -0.00061  -0.87808
   D20       -2.88954   0.00000   0.00000  -0.00028  -0.00028  -2.88982
   D21       -2.99230  -0.00004   0.00000  -0.00145  -0.00145  -2.99375
   D22        1.08275  -0.00002   0.00000  -0.00124  -0.00124   1.08151
   D23       -0.92932  -0.00004   0.00000  -0.00091  -0.00091  -0.93023
   D24        2.85363   0.00000   0.00000   0.00146   0.00146   2.85509
   D25       -1.22431   0.00000   0.00000   0.00044   0.00044  -1.22387
   D26        0.87402   0.00000   0.00000   0.00032   0.00032   0.87434
   D27       -1.31695  -0.00001   0.00000   0.00118   0.00118  -1.31577
   D28        0.88829  -0.00000   0.00000   0.00017   0.00017   0.88846
   D29        2.98662  -0.00000   0.00000   0.00005   0.00005   2.98667
   D30        0.76201   0.00001   0.00000   0.00163   0.00163   0.76365
   D31        2.96725   0.00001   0.00000   0.00062   0.00062   2.96787
   D32       -1.21760   0.00001   0.00000   0.00050   0.00050  -1.21710
   D33        0.03370  -0.00001   0.00000   0.00093   0.00093   0.03464
   D34        2.13753   0.00000   0.00000   0.00094   0.00094   2.13847
   D35       -2.05969   0.00000   0.00000   0.00094   0.00094  -2.05875
   D36        3.03004  -0.00003   0.00000  -0.00036  -0.00036   3.02968
   D37       -1.14933  -0.00002   0.00000  -0.00035  -0.00035  -1.14967
   D38        0.93664  -0.00002   0.00000  -0.00035  -0.00035   0.93629
   D39       -0.41275  -0.00001   0.00000  -0.00058  -0.00058  -0.41333
   D40        1.68832  -0.00002   0.00000  -0.00061  -0.00061   1.68770
   D41       -2.50786  -0.00002   0.00000  -0.00061  -0.00061  -2.50847
   D42        2.86638   0.00000   0.00000   0.00064   0.00064   2.86702
   D43       -1.31574  -0.00000   0.00000   0.00061   0.00061  -1.31513
   D44        0.77127  -0.00001   0.00000   0.00061   0.00061   0.77188
         Item               Value     Threshold  Converged?
 Maximum Force            0.016455     0.000450     NO 
 RMS     Force            0.001606     0.000300     NO 
 Maximum Displacement     0.011316     0.001800     NO 
 RMS     Displacement     0.003242     0.001200     NO 
 Predicted change in Energy= 1.439332D-04
 GradGradGradGradGradGradGradGradGradGradGradGradGradGradGradGradGradGrad

                          Input orientation:                          
 ---------------------------------------------------------------------
 Center     Atomic      Atomic             Coordinates (Angstroms)
 Number     Number       Type             X           Y           Z
 ---------------------------------------------------------------------
      1          6           0       -0.368944    0.749439   -0.846693
      2          6           0       -1.760037    1.027598   -0.392672
      3          8           0       -2.048628    2.130792    0.080832
      4          6           0        0.561245    0.132256   -0.075207
      5          6           0        1.496635    2.524406    0.934176
      6          1           0        1.572093    3.194709    1.789210
      7          1           0        2.439735    2.520660    0.392684
      8          1           0        0.698363    2.867500    0.275310
      9          7           0        1.173189    1.166537    1.357225
     10          1           0        1.946085    0.720970    1.841565
     11          1           0        0.376439    1.171569    1.985524
     12         35           0        2.281502   -0.191259   -0.932700
     13         35           0        0.020903   -1.397252    1.028514
     14          1           0       -0.003945    1.418702   -1.615694
     15          7           0       -2.696971    0.061690   -0.532222
     16          6           0       -2.524881   -1.142011   -1.316728
     17          6           0       -4.035942    0.285459   -0.028845
     18          1           0       -1.526127   -1.165912   -1.741914
     19          1           0       -2.671097   -2.029557   -0.696943
     20          1           0       -3.259952   -1.161051   -2.126462
     21          1           0       -4.011356    1.034417    0.757043
     22          1           0       -4.705513    0.630324   -0.822822
     23          1           0       -4.428626   -0.650605    0.370851
 ---------------------------------------------------------------------
                    Distance matrix (angstroms):
                    1          2          3          4          5
     1  C    0.000000
     2  C    1.489513   0.000000
     3  O    2.364271   1.234718   0.000000
     4  C    1.356966   2.508141   3.290886   0.000000
     5  C    3.130877   3.821895   3.667699   2.759745   0.000000
     6  H    4.085947   4.534322   4.142475   3.725116   1.089075
     7  H    3.544285   4.525937   4.516044   3.074430   1.087504
     8  H    2.623780   3.142479   2.850705   2.761019   1.090439
     9  N    2.722022   3.418371   3.597092   1.869780   1.458560
    10  H    3.547802   4.338339   4.587539   2.436880   2.068270
    11  H    2.958926   3.200168   3.229382   2.315370   2.047033
    12  Br   2.813748   4.255736   5.016891   1.949164   3.387636
    13  Br   2.876919   3.327374   4.198590   1.962031   4.191192
    14  H    1.082821   2.175455   2.750637   2.085062   3.158506
    15  N    2.447775   1.352884   2.253301   3.290868   5.079530
    16  C    2.906300   2.479126   3.590436   3.562205   5.889123
    17  C    3.785635   2.421339   2.714167   4.599973   6.045635
    18  H    2.410199   2.585856   3.803113   2.969894   5.469643
    19  H    3.611807   3.204498   4.277956   3.938023   6.385070
    20  H    3.694010   3.169536   4.144356   4.525686   6.750942
    21  H    3.990031   2.527909   2.347680   4.734471   5.708714
    22  H    4.338270   3.003112   3.182300   5.342822   6.718723
    23  H    4.463581   3.243562   3.672148   5.070567   6.745869
                    6          7          8          9         10
     6  H    0.000000
     7  H    1.776916   0.000000
     8  H    1.778304   1.779453   0.000000
     9  N    2.111686   2.090007   2.071057   0.000000
    10  H    2.502398   2.362589   2.935567   1.015127   0.000000
    11  H    2.358225   2.935026   2.429949   1.014690   1.639376
    12  Br   4.401913   3.022612   3.649880   2.883700   2.939594
    13  Br   4.906216   4.648125   4.383421   2.829987   2.975608
    14  H    4.151081   3.349547   2.483576   3.207410   4.030147
    15  N    5.781848   5.769552   4.478054   4.446216   5.256185
    16  C    6.726008   6.401926   5.385171   5.114210   5.782305
    17  C    6.574125   6.863542   5.401212   5.461917   6.282735
    18  H    6.409588   5.820256   5.028514   4.725599   5.334595
    19  H    7.174858   6.929096   6.023264   5.404920   5.943719
    20  H    7.593010   7.237923   6.137263   6.099712   6.811025
    21  H    6.075124   6.630102   5.076782   5.220841   6.063459
    22  H    7.266851   7.490354   5.950860   6.292795   7.165957
    23  H    7.266829   7.565169   6.218698   5.971203   6.684397
                   11         12         13         14         15
    11  H    0.000000
    12  Br   3.742005   0.000000
    13  Br   2.764257   3.226622   0.000000
    14  H    3.629675   2.877798   3.862907   0.000000
    15  N    4.125133   5.000956   3.457058   3.204338   0.000000
    16  C    4.967412   4.914543   3.470782   3.605794   1.447053
    17  C    4.930718   6.399556   4.517468   4.478765   1.447862
    18  H    4.793471   4.012831   3.181523   3.002198   2.083564
    19  H    5.170137   5.288021   3.259429   4.455143   2.097884
    20  H    5.964301   5.750937   4.557815   4.185402   2.086540
    21  H    4.558587   6.630051   4.716548   4.672997   2.082308
    22  H    5.831466   7.036012   5.466033   4.832694   2.107614
    23  H    5.386663   6.850990   4.559420   5.273158   2.078830
                   16         17         18         19         20
    16  C    0.000000
    17  C    2.445326   0.000000
    18  H    1.085756   3.367530   0.000000
    19  H    1.092361   2.769199   1.774488   0.000000
    20  H    1.093783   2.663560   1.775965   1.773296   0.000000
    21  H    3.353650   1.085892   4.154828   3.646684   3.701255
    22  H    2.853115   1.094375   3.765593   3.351069   2.645401
    23  H    2.591071   1.090951   3.626820   2.476006   2.804091
                   21         22         23
    21  H    0.000000
    22  H    1.772320   0.000000
    23  H    1.778358   1.772654   0.000000
 Stoichiometry    C6H12Br2N2O
 Framework group  C1[X(C6H12Br2N2O)]
 Deg. of freedom    63
 Full point group                 C1      NOp   1
 Largest Abelian subgroup         C1      NOp   1
 Largest concise Abelian subgroup C1      NOp   1
                         Standard orientation:                         
 ---------------------------------------------------------------------
 Center     Atomic      Atomic             Coordinates (Angstroms)
 Number     Number       Type             X           Y           Z
 ---------------------------------------------------------------------
      1          6           0       -0.369989    0.750936   -0.843801
      2          6           0       -1.761241    1.027839   -0.389498
      3          8           0       -2.050108    2.129881    0.086516
      4          6           0        0.560080    0.132073   -0.073519
      5          6           0        1.494876    2.521976    0.941719
      6          1           0        1.570015    3.190282    1.798344
      7          1           0        2.438119    2.519629    0.400470
      8          1           0        0.696730    2.866506    0.283449
      9          7           0        1.171504    1.163074    1.361498
     10          1           0        1.944333    0.716479    1.844995
     11          1           0        0.374587    1.166524    1.989596
     12         35           0        2.280609   -0.189195   -0.931313
     13         35           0        0.019657   -1.400094    1.026469
     14          1           0       -0.004879    1.422051   -1.611134
     15          7           0       -2.698005    0.062134   -0.531560
     16          6           0       -2.525543   -1.139700   -1.318842
     17          6           0       -4.037140    0.284539   -0.028014
     18          1           0       -1.526672   -1.162467   -1.743819
     19          1           0       -2.671800   -2.028718   -0.701179
     20          1           0       -3.260396   -1.156942   -2.128813
     21          1           0       -4.012864    1.031654    0.759634
     22          1           0       -4.706548    0.631173   -0.821358
     23          1           0       -4.429801   -0.652514    0.369381
 ---------------------------------------------------------------------
 Rotational constants (GHZ):           0.7877496           0.3977363           0.3529632
 Standard basis: def2TZVP (5D, 7F)
 There are   506 symmetry adapted cartesian basis functions of A   symmetry.
 There are   447 symmetry adapted basis functions of A   symmetry.
   447 basis functions,   783 primitive gaussians,   506 cartesian basis functions
    70 alpha electrons       70 beta electrons
       nuclear repulsion energy      1388.2430679698 Hartrees.
 NAtoms=   23 NActive=   23 NUniq=   23 SFac= 1.00D+00 NAtFMM=   60 NAOKFM=F Big=F
 Integral buffers will be    131072 words long.
 Raffenetti 2 integral format.
 Two-electron integral symmetry is turned on.
 Nuclear repulsion after empirical dispersion term =     1388.2258453904 Hartrees.
 ------------------------------------------------------------------------------
 Polarizable Continuum Model (PCM)
 =================================
 Model                : PCM.
 Atomic radii         : UFF (Universal Force Field).
 Polarization charges : Total charges.
 Charge compensation  : None.
 Solution method      : Matrix inversion.
 Cavity type          : Scaled VdW (van der Waals Surface) (Alpha=1.100).
 Cavity algorithm     : GePol (No added spheres)
                        Default sphere list used, NSphG=   23.
                        Lebedev-Laikov grids with approx.  5.0 points / Ang**2.
                        Smoothing algorithm: York/Karplus (Gamma=1.0000).
                        Polarization charges: spherical gaussians, with
                                              point-specific exponents (IZeta= 3).
                        Self-potential: point-specific (ISelfS= 7).
                        Self-field    : sphere-specific E.n sum rule (ISelfD= 2).
 1st derivatives      : Analytical E(r).r(x)/FMM algorithm (CHGder, D1EAlg=3).
                        Cavity 1st derivative terms included.
 Solvent              : Water, Eps=  78.355300 Eps(inf)=   1.777849
 ------------------------------------------------------------------------------
 One-electron integrals computed using PRISM.
   1 Symmetry operations used in ECPInt.
 ECPInt:  NShTT=   16110 NPrTT=   54981 LenC2=   15154 LenP2D=   37582.
 LDataN:  DoStor=T MaxTD1= 6 Len=  172
 NBasis=   447 RedAO= T EigKep=  9.30D-05  NBF=   447
 NBsUse=   447 1.00D-06 EigRej= -1.00D+00 NBFU=   447
 Initial guess from the checkpoint file:  "/beegfs/scratch/user/q/tla25/Gau-15341.chk"
 B after Tr=     0.000000   -0.000000   -0.000000
         Rot=    0.999999   -0.001478    0.000193   -0.000260 Ang=  -0.17 deg.
 Requested convergence on RMS density matrix=1.00D-08 within 128 cycles.
 Requested convergence on MAX density matrix=1.00D-06.
 Requested convergence on             energy=1.00D-06.
 No special actions if energy rises.
 Inv3:  Mode=1 IEnd=    11047683.
 Iteration    1 A*A^-1 deviation from unit magnitude is 4.88D-15 for   1914.
 Iteration    1 A*A^-1 deviation from orthogonality  is 2.69D-15 for   1919   1797.
 Iteration    1 A^-1*A deviation from unit magnitude is 5.33D-15 for   1914.
 Iteration    1 A^-1*A deviation from orthogonality  is 3.28D-15 for   1914   1795.
 Error on total polarization charges =  0.01530
 SCF Done:  E(RwB97XD) =  -5568.99171341     A.U. after   10 cycles
            NFock= 10  Conv=0.94D-08     -V/T= 2.0017
   1 Symmetry operations used in ECPInt.
 ECPInt:  NShTT=   16110 NPrTT=   54981 LenC2=   15154 LenP2D=   37582.
 LDataN:  DoStor=T MaxTD1= 7 Len=  274
 D1PCM: PCM CHGder 1st derivatives, ID1Alg=3 FixD1E=F DoIter=F DoCFld=F I1PDM=0.
 Calling FoFJK, ICntrl=      2127 FMM=F ISym2X=0 I1Cent= 0 IOpClX= 0 NMat=1 NMatS=1 NMatT=0.
 ***** Axes restored to original set *****
 -------------------------------------------------------------------
 Center     Atomic                   Forces (Hartrees/Bohr)
 Number     Number              X              Y              Z
 -------------------------------------------------------------------
      1        6           0.000059663   -0.000055470   -0.000046317
      2        6           0.000013399    0.000144696   -0.000043192
      3        8          -0.000008112   -0.000044197   -0.000006746
      4        6          -0.005325630   -0.008877834   -0.012437856
      5        6          -0.000014451   -0.000025478   -0.000018292
      6        1          -0.000000177   -0.000001878   -0.000002341
      7        1           0.000013376   -0.000008614   -0.000008403
      8        1          -0.000004100    0.000013001    0.000006634
      9        7           0.005259219    0.008784565    0.012391191
     10        1          -0.000002070    0.000039764   -0.000004482
     11        1          -0.000001880    0.000025038   -0.000032430
     12       35           0.000012805    0.000008533    0.000029086
     13       35           0.000053536    0.000068707    0.000094366
     14        1           0.000030078    0.000040844    0.000039556
     15        7           0.000013246   -0.000080454    0.000070649
     16        6          -0.000064771   -0.000034135   -0.000013199
     17        6          -0.000036904    0.000008266   -0.000037637
     18        1          -0.000001789    0.000027323   -0.000001932
     19        1          -0.000001321   -0.000007056    0.000008840
     20        1          -0.000001220   -0.000012280    0.000011135
     21        1          -0.000008389   -0.000009881    0.000006387
     22        1           0.000032827    0.000001720   -0.000003589
     23        1          -0.000017334   -0.000005180   -0.000001427
 -------------------------------------------------------------------
 Cartesian Forces:  Max     0.012437856 RMS     0.002746095

 GradGradGradGradGradGradGradGradGradGradGradGradGradGradGradGradGradGrad
 Berny optimization.
 FormGI is forming the generalized inverse of G from B-inverse, IUseBI=4.
 Internal  Forces:  Max     0.016045276 RMS     0.001566300
 Search for a saddle point.
 Step number   2 out of a maximum of   70
 All quantities printed in internal units (Hartrees-Bohrs-Radians)
 Swapping is turned off.
 Update second derivatives using D2CorX and points    1    2
 ITU=  0  0
     Eigenvalues ---   -0.03015  -0.00031   0.00042   0.00127   0.00201
     Eigenvalues ---    0.00391   0.00731   0.00843   0.01175   0.02411
     Eigenvalues ---    0.03069   0.03582   0.04598   0.04794   0.05059
     Eigenvalues ---    0.05402   0.05888   0.05972   0.06103   0.06167
     Eigenvalues ---    0.06292   0.07666   0.08347   0.10710   0.12694
     Eigenvalues ---    0.13075   0.13203   0.13362   0.14674   0.15025
     Eigenvalues ---    0.15878   0.16269   0.16302   0.17679   0.17863
     Eigenvalues ---    0.18023   0.18110   0.19526   0.20193   0.22335
     Eigenvalues ---    0.22756   0.25663   0.25939   0.29405   0.33051
     Eigenvalues ---    0.33168   0.33549   0.33968   0.34131   0.34518
     Eigenvalues ---    0.35096   0.35430   0.35493   0.36204   0.36792
     Eigenvalues ---    0.38173   0.38661   0.42940   0.44888   0.45019
     Eigenvalues ---    0.49824   0.55249   0.76034
 Eigenvectors required to have negative eigenvalues:
                          R6        R8        D7        D9        R7
   1                    0.89774  -0.17803  -0.17571   0.12659  -0.11961
                          A7        D10       A10       R2        A19
   1                   -0.11330  -0.11126  -0.07675  -0.07600  -0.07497
 RFO step:  Lambda0=5.801461317D-03 Lambda=-1.43542589D-03.
 Linear search not attempted -- option 19 set.
 Maximum step size (   0.010) exceeded in Quadratic search.
    -- Step size scaled by   0.030
 Iteration  1 RMS(Cart)=  0.00335630 RMS(Int)=  0.00000358
 Iteration  2 RMS(Cart)=  0.00000518 RMS(Int)=  0.00000061
 Iteration  3 RMS(Cart)=  0.00000000 RMS(Int)=  0.00000061
 Variable       Old X    -DE/DX   Delta X   Delta X   Delta X     New X
                                 (Linear)    (Quad)   (Total)
    R1        2.81477   0.00008   0.00000  -0.00034  -0.00034   2.81443
    R2        2.56429   0.00000   0.00000   0.00101   0.00101   2.56530
[...]
 .00000300,0.00001194,-0.00014248,-0.00019789,-0.00050769,-0.00164348,-
 0.00066106,0.00003730,-0.00026091,-0.00037359,-0.00011018,0.00014583,-
 0.00007453,0.00028159,-0.00387709,0.00021577,-0.00025254,0.00017721,-0
 .00901966,0.00856909,0.07141384,0.16163644,0.08456501,0.13095621,-0.14
 756723,-0.00275049,0.00728958,-0.00198727,-0.00062833,-0.00229845,0.00
 061416,0.00472974,0.02416229,-0.02200544,-0.00014765,-0.00010979,-0.00
 007920,0.00010223,-0.00021438,0.00026415,-0.00011666,-0.00003771,-0.00
 007761,0.00020499,-0.00051561,-0.00058364,-0.00144313,0.00004361,0.000
 74761,-0.00018001,-0.00040106,-0.00012253,0.00020747,0.00007393,0.0004
 4396,-0.00259860,-0.00151192,0.00058150,-0.00162056,-0.00726530,0.0064
 4787,-0.08225168,-0.15103037,0.16306629,-0.03282042,-0.01744273,0.0094
 5416,-0.21874350,-0.09515796,0.05068145,0.01882771,-0.02365198,-0.0062
 5046,0.00650295,-0.00755889,0.00980634,0.00008148,0.00057492,-0.000371
 89,-0.00007718,-0.00016863,-0.00004015,-0.00004364,0.00002570,0.000039
 89,0.00031596,0.00032953,0.00027020,-0.00221034,-0.00069760,-0.0043504
 2,0.00020556,-0.00047546,-0.00047195,-0.00027957,-0.00005792,0.0001868
 3,-0.00200166,0.00070922,-0.00013920,-0.00152569,0.00334503,-0.0029013
 7,-0.00505151,0.00171424,0.00156737,0.60437879,-0.00937210,0.01078294,
 0.00099963,-0.08707643,-0.18199685,0.00467314,-0.03038708,-0.10780725,
 -0.00693539,0.00462908,-0.00604953,0.00575522,-0.00016133,0.00017161,-
 0.00006408,-0.00011711,-0.00002651,-0.00009289,-0.00017409,0.00006625,
 -0.00007487,0.00097647,0.00043243,0.00032970,-0.00159998,-0.00004458,-
 0.00315554,0.00010491,-0.00032536,-0.00041499,-0.00017158,-0.00024760,
 0.00006869,-0.00079041,-0.00045155,-0.00011432,0.00131164,0.00090762,-
 0.00125735,0.00198635,0.00167928,0.00104205,0.09562812,0.64136416,0.01
 579308,0.00134922,0.00635831,0.03274812,-0.01635623,-0.07234151,-0.004
 22594,0.00088532,0.02533654,-0.00089597,0.00563850,-0.00500570,0.00007
 979,-0.00017092,0.00014648,0.00003569,0.00002811,0.00003286,0.00005376
 ,-0.00003991,0.00001220,-0.00023796,-0.00019453,-0.00004044,0.00116756
 ,-0.00008497,0.00160221,0.00004977,0.00027330,0.00030225,0.00013304,0.
 00022556,0.00005201,0.00062602,-0.00048238,0.00008029,-0.00252024,-0.0
 0041565,0.00115322,0.00183893,-0.00002709,-0.00041480,-0.13917000,0.14
 298830,0.23021784,-0.00463740,-0.00242694,-0.00051751,0.01069164,-0.00
 702368,-0.01716602,-0.00059431,-0.00778595,0.00303818,0.00098624,-0.00
 219442,0.00220774,0.00006221,0.00009890,-0.00001779,-0.00002088,-0.000
 01981,-0.00001346,-0.00001002,0.00000369,0.00000756,0.00004858,0.00005
 057,0.00004257,-0.00027222,-0.00011477,-0.00089714,0.00003228,-0.00001
 807,-0.00006439,-0.00000666,-0.00001275,0.00004602,-0.00011597,-0.0000
 5588,0.00002447,-0.00214823,0.00043285,-0.00185227,-0.00000509,0.00009
 593,0.00008493,-0.10331214,-0.01233975,0.01347185,0.61877415,0.0020907
 9,-0.00425167,-0.00163654,-0.01303043,-0.04052807,-0.00681836,-0.00278
 784,0.00849520,-0.00004844,-0.00111410,0.00148730,-0.00182056,0.000012
 17,-0.00016119,0.00004653,0.00002695,0.00004237,0.00001552,0.00002650,
 0.00000367,-0.00000250,-0.00016600,-0.00010743,-0.00007097,0.00043630,
 0.00005739,0.00111944,-0.00007973,0.00016749,0.00011433,0.00000666,0.0
 0001624,-0.00014913,0.00020257,-0.00023047,0.00014003,0.00112004,-0.00
 082228,0.00132136,0.00060912,-0.00043071,-0.00057089,0.00955829,-0.191
 78521,-0.06798286,0.00319886,0.51988902,0.00039240,0.00033656,0.000104
 29,-0.01071262,0.00476179,-0.00457355,0.00518230,0.00581090,0.00534365
 ,-0.00093606,0.00068699,-0.00043752,0.00004972,-0.00013485,0.00005308,
 0.00000845,0.00002094,0.00000793,0.00002237,-0.00000293,0.00000788,-0.
 00013367,-0.00006050,-0.00006425,0.00048574,0.00001201,0.00057807,-0.0
 0000980,0.00019734,0.00007766,-0.00001995,0.00001116,-0.00009657,0.000
 18326,-0.00008933,-0.00002603,-0.00181578,-0.00032731,-0.00146094,0.00
 062136,-0.00009269,-0.00010766,0.02058427,-0.07917877,-0.09984396,-0.0
 2603261,-0.03977312,0.54820831,0.00398170,-0.00314741,0.00218734,-0.04
 160343,-0.01115617,0.01027036,0.00081064,0.01096450,0.00200083,-0.0016
 1083,0.00106187,-0.00182315,0.00001164,-0.00012962,0.00010513,0.000032
 04,0.00005036,0.00001803,0.00004225,-0.00000586,0.00000551,-0.00020751
 ,-0.00011830,-0.00008690,0.00050210,0.00024577,0.00099538,-0.00006715,
 0.00008336,0.00007184,-0.00000675,-0.00003330,-0.00017127,0.00049459,0
 .00005434,-0.00005115,0.00024095,-0.00030996,0.00029260,-0.00053415,-0
 .00020013,-0.00037433,-0.20529544,0.03053009,0.05194371,-0.00321749,0.
 00498085,0.00353455,0.50942411,-0.00533035,-0.00137795,-0.00143642,-0.
 01959151,0.01431188,0.01031278,-0.00339720,-0.00239084,0.00211201,0.00
 115639,-0.00191662,0.00300059,0.00004000,0.00013777,-0.00005519,-0.000
 02147,-0.00003207,-0.00001506,-0.00000185,0.00000251,0.00001599,0.0000
 3253,0.00005851,0.00005280,-0.00037849,-0.00011756,-0.00099850,0.00003
 689,-0.00008615,-0.00009765,-0.00004033,-0.00000467,0.00004968,-0.0004
 6338,0.00017112,-0.00001515,0.00001502,0.00081714,-0.00074664,-0.00080
 571,-0.00000835,0.00001570,0.02241714,-0.11167962,-0.02275302,0.031165
 99,-0.00867059,-0.01240078,0.03193465,0.61253693,0.00119088,-0.0016318
 0,0.00512990,0.01088433,0.01313712,-0.00175109,0.00276794,-0.00634002,
 -0.00680204,0.00166848,-0.00005014,0.00038034,-0.00000475,0.00005172,-
 0.00006502,-0.00001639,-0.00003174,-0.00000381,-0.00001941,0.00000386,
 -0.00000505,0.00009282,0.00006403,0.00005162,-0.00031165,-0.00018152,-
 0.00044648,0.00001428,-0.00006261,-0.00004259,0.00002350,0.00002160,0.
 00011476,-0.00028045,-0.00004286,-0.00008026,-0.00006178,-0.00001564,0
 .00009192,-0.00099119,0.00050589,0.00063919,0.03897019,-0.02236275,-0.
 08530855,0.01704033,-0.00854094,-0.01182207,0.01948553,0.01309780,0.56
 670667,-0.00122095,-0.00125764,-0.00045758,-0.00050368,-0.00204110,-0.
 00022185,0.00001809,0.00068149,-0.00024238,-0.00082321,-0.00067743,-0.
 00076497,0.00000272,-0.00006838,0.00002090,0.00000194,0.00000855,0.000
 00151,0.00000571,-0.00000080,0.00000095,-0.00002100,-0.00003072,-0.000
 02278,0.00023146,0.00008777,0.00033360,-0.00001422,0.00013332,0.000036
 24,0.00000448,0.00002950,-0.00001690,-0.00006178,-0.00004462,0.0000668
 6,-0.00269126,0.00064517,-0.00297340,0.00014622,0.00025377,0.00016473,
 -0.00083846,0.00213502,0.00059813,-0.26963695,0.02376995,0.11505141,0.
 00133790,0.00023766,0.00099261,0.29159606,0.00064389,0.00055745,0.0018
 2631,0.00235907,0.00105944,-0.00110805,-0.00014640,-0.00027632,-0.0001
 7252,-0.00165542,0.00092225,-0.00258312,-0.00003020,-0.00012158,0.0000
 5482,0.00000892,0.00001201,0.00000822,-0.00000143,0.00000053,-0.000012
 37,0.00001706,-0.00003675,-0.00003382,0.00041454,0.00008855,0.00086601
 ,-0.00000023,0.00009634,0.00010261,0.00002785,0.00001330,-0.00001539,0
 .00024085,0.00004391,0.00000431,-0.00023024,-0.00045394,0.00055691,0.0
 0011159,0.00013322,0.00004902,0.03041071,-0.00588348,-0.01473183,0.013
 50675,-0.04982671,-0.00782869,-0.00201078,-0.00470437,-0.00254340,-0.0
 2454670,0.05513884,0.00103370,0.00110990,0.00051212,0.00181928,0.00114
 594,0.00035077,-0.00022652,-0.00038262,-0.00016017,-0.00139874,-0.0005
 2986,-0.00114092,-0.00001808,-0.00004190,0.00009855,0.00001445,0.00002
 841,0.00000318,-0.00000153,0.00000290,-0.00001445,0.00002382,-0.000016
 61,-0.00001847,0.00017252,0.00028637,0.00030825,-0.00002877,-0.0000362
 2,0.00000710,0.00002392,-0.00006189,-0.00005010,0.00018688,0.00007435,
 -0.00004626,-0.00176321,0.00057398,-0.00166995,0.00002637,0.00016582,0
 .00007304,0.01581824,-0.00312403,-0.00942721,0.10865976,-0.01241857,-0
 .10699681,-0.00119582,-0.00221932,-0.00097234,-0.12140363,0.01595831,0
 .11526237,-0.00002368,-0.00036029,-0.00087951,-0.00031536,-0.00068491,
 0.00039077,0.00007277,-0.00032677,-0.00017090,0.00021202,-0.00097811,0
 .00091086,0.00001180,0.00000564,0.00006218,-0.00000006,0.00002156,-0.0
 0000872,0.00000356,0.00000459,-0.00000309,0.00000357,0.00001266,0.0000
 0369,-0.00002203,0.00022351,-0.00012628,-0.00003243,-0.00004505,-0.000
 04378,0.00001768,-0.00003202,-0.00001079,-0.00015476,0.00000785,-0.000
 01376,-0.00093466,0.00037251,-0.00079451,-0.00010037,-0.00001080,-0.00
 001374,-0.00011484,0.00115798,0.00047504,-0.05282148,-0.02225499,0.019
 77303,0.00077694,0.00079497,-0.00081669,-0.00116382,-0.02102551,0.0175
 9697,0.05157275,-0.00087486,0.00041758,-0.00017302,0.00823801,0.001435
 89,0.00089029,-0.00171699,-0.00422423,-0.00151753,0.00061149,-0.000925
 09,0.00119197,-0.00000332,0.00003502,0.00001667,-0.00001304,0.00000220
 ,-0.00001234,-0.00001058,0.00000310,-0.00000305,0.00007552,0.00004615,
 0.00003157,-0.00011990,0.00005135,-0.00042145,-0.00000419,-0.00005037,
 -0.00005797,0.00000499,-0.00002545,0.00003587,-0.00014485,0.00005851,-
 0.00006240,0.00060474,0.00060005,-0.00007481,-0.00018026,0.00016884,0.
 00013656,-0.00952613,-0.03355378,0.00934814,-0.02187992,-0.18941226,0.
 12716693,-0.00228945,0.00025290,0.00127839,0.00004832,0.00358762,-0.00
 216777,0.02567637,0.21956965,-0.00010076,0.00025629,0.00045950,0.00193
 747,-0.00237136,0.00000044,-0.00114217,-0.00087817,-0.00058844,-0.0001
 5788,0.00018151,-0.00035034,-0.00000412,-0.00001203,-0.00001970,0.0000
 0275,-0.00000806,0.00000387,-0.00000522,0.00000328,-0.00000371,0.00001
 452,-0.00000419,0.00000187,0.00000391,-0.00006987,0.00005411,0.0000158
 7,0.00001970,0.00002755,-0.00000417,0.00000345,-0.00000125,-0.00001886
 ,0.00000300,0.00002233,-0.00133939,-0.00042302,-0.00068531,0.00000440,
 0.00002984,0.00001900,-0.00285359,-0.01871201,0.01449978,0.02244636,0.
 13292022,-0.16609076,-0.00111441,-0.00046430,0.00101558,-0.00089388,0.
 00954739,-0.00868766,-0.01988551,-0.13610079,0.17443910,-0.00205205,-0
 .00070967,-0.00089121,0.00143235,0.00156924,-0.00023414,-0.00025714,-0
 .00021687,-0.00040634,0.00140693,-0.00056152,0.00162212,0.00002296,0.0
 0008786,-0.00010167,-0.00001320,-0.00003352,-0.00000325,-0.00000603,-0
 .00000054,0.00001299,-0.00000020,0.00003174,0.00002577,-0.00029726,-0.
 00024559,-0.00065496,0.00003489,0.00000105,-0.00004558,-0.00003515,0.0
 0003414,0.00004519,-0.00023380,-0.00005739,0.00001296,-0.00028033,0.00
 016704,-0.00056604,-0.00001722,0.00012040,0.00011840,0.00274912,-0.003
 05217,0.00168337,-0.18912225,-0.00142972,-0.12543359,0.00148542,-0.000
 51964,0.00239917,-0.01636487,0.00047078,-0.02010847,0.00298882,0.00024
 248,0.00328899,0.19787292,-0.00112398,0.00054530,0.00013675,0.00406002
 ,0.00520916,-0.00539259,0.00028898,-0.00350245,0.00101907,0.00046853,-
 0.00121295,0.00117823,0.00001040,0.00004669,0.00002574,-0.00000901,0.0
 0000140,-0.00000961,-0.00000528,0.00000171,-0.00000025,0.00004543,0.00
 003839,0.00002483,-0.00010949,0.00009563,-0.00046328,-0.00000461,-0.00
 006258,-0.00006110,0.00000908,-0.00003131,0.00002861,-0.00015238,0.000
 01937,-0.00004505,0.00071271,0.00055733,0.00008695,-0.00011247,0.00022
 503,0.00022092,-0.02752968,-0.01556515,-0.02724365,0.00159731,-0.04771
 331,0.00212407,-0.00237665,0.00142214,0.00033703,0.00102563,-0.0001590
 0,0.00233567,0.01799126,0.00157979,0.01523309,0.00449118,0.05882388,-0
 .00045700,0.00065036,0.00031333,0.00369454,0.00534281,-0.00292253,0.00
 013064,-0.00320275,-0.00021959,0.00040085,-0.00021339,0.00033668,0.000
 00861,0.00004608,-0.00003820,-0.00000741,-0.00002597,0.00000009,-0.000
 01076,0.00000082,-0.00000037,0.00005542,0.00003207,0.00002382,-0.00020
 095,-0.00012653,-0.00031913,0.00001922,-0.00003675,-0.00002477,0.00000
 682,0.00000228,0.00005890,-0.00014767,0.00000890,0.00000026,-0.0001893
 0,-0.00011080,-0.00001349,-0.00010468,0.00012768,0.00015028,-0.0131618
 4,-0.01482517,-0.01027961,-0.12372123,0.00133152,-0.16454893,-0.000872
 00,0.00022868,0.00101853,0.00999041,0.00062783,0.01236923,-0.01651458,
 0.00088957,-0.01375534,0.14039637,0.00929665,0.17838322,-0.00013111,0.
 00017649,-0.00055020,0.00127390,0.00376426,0.00109702,0.00001098,-0.00
 174091,-0.00092754,0.00001270,-0.00001531,0.00003901,-0.00000412,0.000
 01731,-0.00002047,0.00000257,-0.00000448,0.00000190,0.00000085,-0.0000
 0083,0.00000094,-0.00000080,-0.00000058,-0.00000469,-0.00003052,-0.000
 02838,-0.00005642,0.00000592,-0.00000424,-0.00000448,-0.00000581,0.000
 00581,-0.00000280,-0.00001501,0.00000511,0.00001019,-0.00001568,-0.000
 03934,0.00000291,0.00008295,0.00002909,0.00004388,0.00010265,0.0268868
 2,0.02442332,-0.00505807,-0.00099032,0.00201490,-0.05193599,-0.0233636
 8,-0.02342052,-0.00021973,0.00148300,0.00082405,0.00007054,-0.00000592
 ,-0.00025137,0.00007339,-0.00007015,0.00010989,0.05761856,0.00038346,-
 0.00004965,-0.00012458,-0.00151801,-0.00153796,0.00072308,-0.00136476,
 0.00025670,0.00109922,-0.00029368,0.00012940,-0.00036303,-0.00000901,-
 0.00001324,0.00001204,0.00000461,0.00000650,0.00000134,0.00000082,0.00
 000026,-0.00000215,0.00000021,-0.00000711,-0.00000958,0.00006915,0.000
 03890,0.00014768,-0.00000700,0.00000982,0.00001384,0.00000986,-0.00000
 338,-0.00000911,0.00004952,0.00000267,0.00001015,0.00000304,-0.0000399
 5,0.00005714,0.00000882,0.00003800,-0.00001585,0.00313021,-0.00744653,
 -0.00483014,0.00206651,0.00099403,-0.00094651,-0.01609489,-0.19747103,
 -0.13912040,-0.00006984,-0.00048201,-0.00043320,-0.00008281,0.00023855
 ,-0.00001199,-0.00021593,0.00001538,0.00005272,0.01515714,0.21236296,-
 0.00007806,0.00021371,0.00002554,-0.00019575,-0.00433816,0.00027635,-0
 .00235630,0.00174521,0.00120722,-0.00000348,-0.00003060,0.00003590,0.0
 0000226,-0.00001660,0.00001374,-0.00000553,0.00000299,-0.00000371,-0.0
 0000232,0.00000258,-0.00000209,0.00001847,0.00001174,0.00000865,0.0000
 1388,0.00001901,0.00002620,-0.00000273,0.00000170,-0.00000044,0.000007
 63,-0.00000900,0.00000243,-0.00004991,-0.00000610,0.00000242,0.0000555
 4,0.00002175,-0.00000688,-0.00000418,0.00000740,-0.00003742,0.00204928
 ,-0.00807647,-0.00807263,0.00205203,0.00124931,-0.00056998,-0.01583411
 ,-0.13657843,-0.17226420,0.00004263,-0.00065832,0.00002242,-0.00009375
 ,-0.00014633,0.00013746,-0.00008485,0.00029920,0.00023506,0.01659682,0
 .15270080,0.18188114,-0.00082988,-0.00028297,0.00105519,0.00281574,0.0
 0974701,-0.00087407,0.00097419,-0.00373633,-0.00168589,0.00113925,-0.0
 0062008,0.00107940,0.00001151,0.00008684,-0.00006525,-0.00001292,-0.00
 003076,-0.00000433,-0.00001136,0.00000053,0.00000444,0.00005680,0.0000
 4969,0.00004052,-0.00030981,-0.00013787,-0.00059137,0.00002540,-0.0000
 6281,-0.00005426,0.00000287,0.00001261,0.00008513,-0.00028624,0.000005
 08,-0.00002201,-0.00004378,0.00019973,-0.00016356,-0.00043994,0.000264
 75,0.00030851,-0.03691319,0.00841745,-0.01446861,-0.00043475,-0.002256
 24,-0.00198446,-0.13093440,0.04248216,-0.11076244,0.00015488,-0.000008
 67,0.00026053,0.00006498,0.00046804,0.00014062,0.00061028,0.00051116,0
 .00049503,-0.00085324,0.00035568,-0.00253580,0.15685036,0.00026825,-0.
 00011190,0.00008685,-0.00186692,-0.00142692,0.00003636,0.00109922,0.00
 162754,0.00008834,-0.00023286,0.00011404,-0.00023960,0.00000405,-0.000
 00947,0.00000806,0.00000512,0.00000408,0.00000385,0.00000598,-0.000001
 98,0.00000198,-0.00003389,-0.00001872,-0.00001134,0.00005839,0.0000298
 8,0.00010872,-0.00000641,0.00000902,0.00000899,0.00000196,-0.00000166,
 -0.00001745,0.00007198,-0.00000108,-0.00000207,0.00001819,-0.00005697,
 0.00004930,0.00001076,-0.00001967,-0.00001470,0.00925064,-0.00136321,0
 .00128204,0.00087078,0.00120641,0.00158009,0.04255992,-0.07131528,0.05
 624930,-0.00017024,0.00004191,-0.00024714,-0.00024756,0.00000362,0.000
 13817,-0.00044619,-0.00010575,-0.00030388,-0.01445056,0.00797322,-0.01
 784362,-0.05233680,0.07047394,-0.00048680,0.00016800,-0.00088730,0.001
 36403,0.00035150,0.00038933,0.00003086,-0.00020270,0.00019880,-0.00006
 319,-0.00016399,0.00009121,-0.00000785,0.00000633,-0.00000392,0.000000
 87,0.00000116,-0.00000141,-0.00000418,0.00000227,-0.00000176,0.0000172
 3,0.00000771,0.00000022,-0.00001137,0.00000997,-0.00001961,-0.00000176
 ,-0.00000118,-0.00000264,0.00000437,-0.00000266,0.00000148,-0.00001336
 ,0.00000993,0.00001371,0.00006172,0.00002080,-0.00001911,0.00011421,0.
 00002874,-0.00002409,0.00963545,-0.00671464,0.01623123,0.00100234,0.00
 090147,0.00191683,-0.11245535,0.05572921,-0.19560957,-0.00009496,0.000
 13832,0.00002383,-0.00002742,0.00008388,-0.00040320,-0.00107467,0.0007
 8675,-0.00033639,-0.01137385,0.00739561,-0.01516680,0.12104445,-0.0614
 1847,0.20378058,-0.00197571,-0.00021761,-0.00065146,-0.00032279,0.0050
 9452,0.00375502,0.00028924,-0.00091334,-0.00022176,0.00061571,-0.00085
 016,0.00131291,0.00001429,0.00007303,-0.00003797,-0.00000932,-0.000017
 94,-0.00000525,-0.00000336,0.00000123,0.00000690,0.00002929,0.00003126
 ,0.00002728,-0.00021241,-0.00006411,-0.00049542,0.00001820,-0.00004688
 ,-0.00004845,-0.00001166,-0.00000352,0.00003537,-0.00019542,0.00005736
 ,-0.00000797,0.00004201,0.00033962,-0.00032197,-0.00031933,0.00002899,
 0.00002793,-0.02393665,-0.02852191,0.01639754,0.00081881,-0.00192969,-
 0.00082520,-0.08372717,-0.07639978,0.04115521,0.00006047,-0.00003942,-
 0.00031573,-0.00011192,0.00079947,-0.00008352,0.00000239,0.00028201,0.
 00007963,-0.00098492,-0.00158310,0.00040822,0.00836325,0.01556619,-0.0
 0766077,0.10155700,0.00032325,0.00044287,0.00052570,0.00253136,-0.0021
 6841,-0.00066393,-0.00256036,0.00011919,0.00080803,0.00020339,0.000108
 73,0.00002222,0.00000563,-0.00000798,0.00000522,-0.00000700,-0.0000032
 1,-0.00000380,-0.00000465,0.00000120,-0.00000237,0.00002885,0.00001612
 ,0.00001276,-0.00002261,-0.00002092,-0.00002567,0.00000581,-0.00000253
 ,-0.00000092,0.00000577,0.00000160,0.00002485,-0.00008367,-0.00003000,
 0.00000008,-0.00003683,-0.00003357,0.00000487,-0.00003214,0.00003196,-
 0.00000382,0.00517325,0.00882196,-0.00670530,0.00078380,0.00158078,-0.
 00187328,-0.08459316,-0.22993580,0.09617711,-0.00014870,0.00024879,-0.
 00000249,-0.00022008,0.00014036,0.00071982,0.00027282,-0.00022870,0.00
 020726,-0.00681032,-0.01501550,0.01142823,-0.00312819,-0.00705103,0.00
 286197,0.08831379,0.24298407,0.00090475,-0.00007164,0.00039042,-0.0007
 2827,-0.00407683,-0.00147123,-0.00172990,0.00056830,0.00119261,-0.0001
 8103,0.00037832,-0.00053350,-0.00000427,-0.00004278,0.00002268,0.00000
 114,0.00001024,-0.00000029,0.00000023,0.00000128,-0.00000444,-0.000002
 07,-0.00000651,-0.00000782,0.00010668,0.00003710,0.00026075,-0.0000118
 4,0.00002540,0.00002341,0.00000903,-0.00000034,-0.00001112,0.00006021,
 -0.00002610,0.00000032,0.00002701,-0.00014077,0.00011554,0.00007767,-0
 .00003023,-0.00004016,0.01064721,0.00924656,-0.00529082,0.00015830,0.0
 0067313,0.00034131,0.04306767,0.09316521,-0.09997545,-0.00020764,-0.00
 005257,0.00015348,0.00019050,-0.00033239,-0.00009491,-0.00000055,0.000
 08198,-0.00043104,-0.00855250,-0.01634708,0.01224960,0.00869821,0.0204
 5625,-0.01017142,-0.05253053,-0.10351653,0.10328208\\-0.00001105,-0.00
 000015,-0.00000076,0.00000795,0.00001862,0.00000769,0.00000005,0.00000
 364,0.00000922,0.00000588,-0.00000911,-0.00000444,0.00000399,-0.000005
 07,0.00000171,0.00000811,-0.00000859,0.00000137,0.00000324,-0.00000548
 ,-0.00000171,0.00000303,-0.00000282,0.00000352,0.00000634,-0.00000803,
 -0.00000246,0.00000465,-0.00000513,-0.00000297,0.00000402,-0.00000701,
 -0.00000103,-0.00000411,-0.00000049,-0.00000630,-0.00001425,0.00000537
 ,-0.00002264,-0.00000500,-0.00000103,-0.00000560,-0.00000010,-0.000006
 24,-0.00000571,-0.00000683,0.00000097,0.00000226,-0.00000047,0.0000048
 9,0.00000648,0.00000242,0.00000579,0.00000243,-0.00000249,0.00000239,-
 0.00000074,-0.00000575,0.00000674,0.00000010,0.00000266,0.00000090,0.0
 0000796,-0.00000145,0.00000697,0.00000795,-0.00000083,0.00000287,0.000
 00370\\\@


 THE 2ND LAW OF THERMODYNAMICS HAS THE SAME
 DEGREE OF TRUTH AS THE STATEMENT THAT IF YOU THROW
 A TUMBLERFULL OF WATER INTO THE SEA, YOU CANNOT GET
 THE SAME TUMBLERFULL OF WATER OUT AGAIN.
          - J.C. MAXWELL, LETTER TO LORD RAYLEIGH, DECEMBER 6,1870
 Job cpu time:       0 days  7 hours 20 minutes 45.5 seconds.
 Elapsed time:       0 days  0 hours 27 minutes 34.7 seconds.
 File lengths (MBytes):  RWF=    577 Int=      0 D2E=      0 Chk=     27 Scr=      1
 Normal termination of Gaussian 16 at Mon Feb 22 07:44:03 2021.
