 Entering Gaussian System, Link 0=g16
 Initial command:
 /apps/gaussian/16/A.03/g16/l1.exe "/beegfs/scratch/user/q/tla25/Gau-69444.inp" -scrdir="/beegfs/scratch/user/q/tla25/"
 Entering Link 1 = /apps/gaussian/16/A.03/g16/l1.exe PID=     69445.
  
 Copyright (c) 1988,1990,1992,1993,1995,1998,2003,2009,2016,
            Gaussian, Inc.  All Rights Reserved.
  
 This is part of the Gaussian(R) 16 program.  It is based on
 the Gaussian(R) 09 system (copyright 2009, Gaussian, Inc.),
 the Gaussian(R) 03 system (copyright 2003, Gaussian, Inc.),
 the Gaussian(R) 98 system (copyright 1998, Gaussian, Inc.),
 the Gaussian(R) 94 system (copyright 1995, Gaussian, Inc.),
 the Gaussian 92(TM) system (copyright 1992, Gaussian, Inc.),
 the Gaussian 90(TM) system (copyright 1990, Gaussian, Inc.),
 the Gaussian 88(TM) system (copyright 1988, Gaussian, Inc.),
 the Gaussian 86(TM) system (copyright 1986, Carnegie Mellon
 University), and the Gaussian 82(TM) system (copyright 1983,
 Carnegie Mellon University). Gaussian is a federally registered
 trademark of Gaussian, Inc.
  
 This software contains proprietary and confidential information,
 including trade secrets, belonging to Gaussian, Inc.
  
 This software is provided under written license and may be
 used, copied, transmitted, or stored only in accord with that
 written license.
  
 The following legend is applicable only to US Government
 contracts under FAR:
  
                    RESTRICTED RIGHTS LEGEND
  
 Use, reproduction and disclosure by the US Government is
 subject to restrictions as set forth in subparagraphs (a)
 and (c) of the Commercial Computer Software - Restricted
 Rights clause in FAR 52.227-19.
  
 Gaussian, Inc.
 340 Quinnipiac St., Bldg. 40, Wallingford CT 06492
  
  
 ---------------------------------------------------------------
 Warning -- This program may not be used in any manner that
 competes with the business of Gaussian, Inc. or will provide
 assistance to any competitor of Gaussian, Inc.  The licensee
 of this program is prohibited from giving any competitor of
 Gaussian, Inc. access to this program.  By using this program,
 the user acknowledges that Gaussian, Inc. is engaged in the
 business of creating and licensing software in the field of
 computational chemistry and represents and warrants to the
 licensee that it is not a competitor of Gaussian, Inc. and that
 it will not use this program in any manner prohibited above.
 ---------------------------------------------------------------
  

 Cite this work as:
 Gaussian 16, Revision A.03,
 M. J. Frisch, G. W. Trucks, H. B. Schlegel, G. E. Scuseria, 
 M. A. Robb, J. R. Cheeseman, G. Scalmani, V. Barone, 
 G. A. Petersson, H. Nakatsuji, X. Li, M. Caricato, A. V. Marenich, 
 J. Bloino, B. G. Janesko, R. Gomperts, B. Mennucci, H. P. Hratchian, 
 J. V. Ortiz, A. F. Izmaylov, J. L. Sonnenberg, D. Williams-Young, 
 F. Ding, F. Lipparini, F. Egidi, J. Goings, B. Peng, A. Petrone, 
 T. Henderson, D. Ranasinghe, V. G. Zakrzewski, J. Gao, N. Rega, 
 G. Zheng, W. Liang, M. Hada, M. Ehara, K. Toyota, R. Fukuda, 
 J. Hasegawa, M. Ishida, T. Nakajima, Y. Honda, O. Kitao, H. Nakai, 
 T. Vreven, K. Throssell, J. A. Montgomery, Jr., J. E. Peralta, 
 F. Ogliaro, M. J. Bearpark, J. J. Heyd, E. N. Brothers, K. N. Kudin, 
 V. N. Staroverov, T. A. Keith, R. Kobayashi, J. Normand, 
 K. Raghavachari, A. P. Rendell, J. C. Burant, S. S. Iyengar, 
 J. Tomasi, M. Cossi, J. M. Millam, M. Klene, C. Adamo, R. Cammi, 
 J. W. Ochterski, R. L. Martin, K. Morokuma, O. Farkas, 
 J. B. Foresman, and D. J. Fox, Gaussian, Inc., Wallingford CT, 2016.
 
 ******************************************
 Gaussian 16:  ES64L-G16RevA.03 25-Dec-2016
                22-Feb-2021 
 ******************************************
 %nprocshared=16
 Will use up to   16 processors via shared memory.
 %mem=48GB
 ----------------------------------------------------------------------
 # wB97XD def2tzvp, opt=(ts, noeigen, calcfc, maxcycles=70, maxstep=5),
  freq=noraman, scrf=(iefpcm, solvent=water)
 ----------------------------------------------------------------------
 1/5=1,6=70,8=5,10=4,11=1,18=20,26=3,38=1/1,3;
 2/9=110,12=2,17=6,18=5,40=1/2;
 3/5=44,7=101,11=2,25=1,30=1,70=2201,71=2,72=1,74=-58,140=1/1,2,3;
 4//1;
 5/5=2,38=5,53=1/2;
 8/6=4,10=90,11=11/1;
 11/6=1,8=1,9=11,15=111,16=1/1,2,10;
 10/6=1,13=1/2;
 6/7=2,8=2,9=2,10=2,28=1/1;
 7/10=1,18=20,25=1/1,2,3,16;
 1/5=1,6=70,8=5,10=4,11=1,18=20,26=3/3(2);
 2/9=110/2;
 99//99;
 2/9=110/2;
 3/5=44,7=101,11=2,25=1,30=1,70=2205,71=1,72=1,74=-58/1,2,3;
 4/5=5,16=3,69=1/1;
 5/5=2,38=5,53=1/2;
 7//1,2,3,16;
 1/5=1,6=70,8=5,11=1,18=20,26=3/3(-5);
 2/9=110/2;
 6/7=2,8=2,9=2,10=2,19=2,28=1/1;
 99/9=1/99;
 ------------------------
 2_iteration/TS-722-2.out
 ------------------------
 Symbolic Z-matrix:
 Charge =  0 Multiplicity = 1
 C                     0.18716   0.83159  -0.03197 
 C                    -0.05234   2.26059  -0.07494 
 O                     0.88018   3.04158  -0.27565 
 C                    -0.79318  -0.14741   0.09125 
 C                    -0.63747   0.06624   2.87514 
 H                    -1.11331   0.07814   3.85463 
 H                     0.14051  -0.69471   2.85744 
 H                    -0.19171   1.04034   2.67842 
 N                    -1.60781  -0.22016   1.82857 
 H                    -2.01328  -1.14557   1.92139 
 H                    -2.36836   0.44996   1.83201 
 Br                   -0.19327  -1.98322   0.01475 
 Br                   -2.47737  -0.0224   -0.91642 
 C                     1.62961   0.44011  -0.13272 
 C                     2.46199   0.40417   0.98184 
 C                     3.79971   0.05424   0.86268 
 C                     4.32996  -0.25929  -0.3803 
 C                     3.51442  -0.21323  -1.50277 
 C                     2.17886   0.13669  -1.37676 
 H                     2.06081   0.65285   1.95592 
 H                     4.42874   0.02697   1.74394 
 H                     5.37291  -0.53465  -0.47468 
 H                     3.91949  -0.45075  -2.47877 
 H                     1.54358   0.16929  -2.25406 
 C                    -1.42069   2.87185   0.1487 
 H                    -1.96085   2.91895  -0.79823 
 H                    -2.04734   2.33303   0.85465 
 H                    -1.27382   3.88786   0.51003 
 
 Add virtual bond connecting atoms N9         and C4         Dist= 3.63D+00.

 GradGradGradGradGradGradGradGradGradGradGradGradGradGradGradGradGradGrad
 Berny optimization.
 Initialization pass.
                           ----------------------------
                           !    Initial Parameters    !
                           ! (Angstroms and Degrees)  !
 --------------------------                            --------------------------
 ! Name  Definition              Value          Derivative Info.                !
 --------------------------------------------------------------------------------
 ! R1    R(1,2)                  1.4496         calculate D2E/DX2 analytically  !
 ! R2    R(1,4)                  1.3909         calculate D2E/DX2 analytically  !
 ! R3    R(1,14)                 1.498          calculate D2E/DX2 analytically  !
 ! R4    R(2,3)                  1.2328         calculate D2E/DX2 analytically  !
 ! R5    R(2,25)                 1.5153         calculate D2E/DX2 analytically  !
 ! R6    R(4,9)                  1.9202         calculate D2E/DX2 analytically  !
 ! R7    R(4,12)                 1.9329         calculate D2E/DX2 analytically  !
 ! R8    R(4,13)                 1.9666         calculate D2E/DX2 analytically  !
 ! R9    R(5,6)                  1.089          calculate D2E/DX2 analytically  !
 ! R10   R(5,7)                  1.0884         calculate D2E/DX2 analytically  !
 ! R11   R(5,8)                  1.0892         calculate D2E/DX2 analytically  !
 ! R12   R(5,9)                  1.4556         calculate D2E/DX2 analytically  !
 ! R13   R(9,10)                 1.0146         calculate D2E/DX2 analytically  !
 ! R14   R(9,11)                 1.0137         calculate D2E/DX2 analytically  !
 ! R15   R(14,15)                1.3915         calculate D2E/DX2 analytically  !
 ! R16   R(14,19)                1.3933         calculate D2E/DX2 analytically  !
 ! R17   R(15,16)                1.3879         calculate D2E/DX2 analytically  !
 ! R18   R(15,20)                1.0824         calculate D2E/DX2 analytically  !
 ! R19   R(16,17)                1.3873         calculate D2E/DX2 analytically  !
 ! R20   R(16,21)                1.0831         calculate D2E/DX2 analytically  !
 ! R21   R(17,18)                1.3882         calculate D2E/DX2 analytically  !
 ! R22   R(17,22)                1.0828         calculate D2E/DX2 analytically  !
 ! R23   R(18,19)                1.3864         calculate D2E/DX2 analytically  !
 ! R24   R(18,23)                1.0831         calculate D2E/DX2 analytically  !
 ! R25   R(19,24)                1.0837         calculate D2E/DX2 analytically  !
 ! R26   R(25,26)                1.0912         calculate D2E/DX2 analytically  !
 ! R27   R(25,27)                1.0869         calculate D2E/DX2 analytically  !
 ! R28   R(25,28)                1.0883         calculate D2E/DX2 analytically  !
 ! A1    A(2,1,4)              125.453          calculate D2E/DX2 analytically  !
 ! A2    A(2,1,14)             114.5018         calculate D2E/DX2 analytically  !
 ! A3    A(4,1,14)             120.0452         calculate D2E/DX2 analytically  !
 ! A4    A(1,2,3)              120.2891         calculate D2E/DX2 analytically  !
 ! A5    A(1,2,25)             122.8542         calculate D2E/DX2 analytically  !
 ! A6    A(3,2,25)             116.8432         calculate D2E/DX2 analytically  !
 ! A7    A(1,4,9)              113.9429         calculate D2E/DX2 analytically  !
 ! A8    A(1,4,12)             116.503          calculate D2E/DX2 analytically  !
 ! A9    A(1,4,13)             120.8947         calculate D2E/DX2 analytically  !
 ! A10   A(9,4,12)              97.5562         calculate D2E/DX2 analytically  !
 ! A11   A(9,4,13)              95.8935         calculate D2E/DX2 analytically  !
 ! A12   A(12,4,13)            107.8122         calculate D2E/DX2 analytically  !
 ! A13   A(6,5,7)              109.5476         calculate D2E/DX2 analytically  !
 ! A14   A(6,5,8)              109.3601         calculate D2E/DX2 analytically  !
 ! A15   A(6,5,9)              110.9494         calculate D2E/DX2 analytically  !
 ! A16   A(7,5,8)              109.2571         calculate D2E/DX2 analytically  !
 ! A17   A(7,5,9)              109.101          calculate D2E/DX2 analytically  !
 ! A18   A(8,5,9)              108.5982         calculate D2E/DX2 analytically  !
 ! A19   A(4,9,5)              111.115          calculate D2E/DX2 analytically  !
 ! A20   A(4,9,10)             106.6706         calculate D2E/DX2 analytically  !
 ! A21   A(4,9,11)             107.2374         calculate D2E/DX2 analytically  !
 ! A22   A(5,9,10)             112.3388         calculate D2E/DX2 analytically  !
 ! A23   A(5,9,11)             111.5704         calculate D2E/DX2 analytically  !
 ! A24   A(10,9,11)            107.627          calculate D2E/DX2 analytically  !
 ! A25   A(1,14,15)            121.9286         calculate D2E/DX2 analytically  !
 ! A26   A(1,14,19)            119.7709         calculate D2E/DX2 analytically  !
 ! A27   A(15,14,19)           118.2754         calculate D2E/DX2 analytically  !
 ! A28   A(14,15,16)           120.951          calculate D2E/DX2 analytically  !
 ! A29   A(14,15,20)           119.548          calculate D2E/DX2 analytically  !
 ! A30   A(16,15,20)           119.501          calculate D2E/DX2 analytically  !
 ! A31   A(15,16,17)           120.1548         calculate D2E/DX2 analytically  !
 ! A32   A(15,16,21)           119.7549         calculate D2E/DX2 analytically  !
 ! A33   A(17,16,21)           120.0903         calculate D2E/DX2 analytically  !
 ! A34   A(16,17,18)           119.5003         calculate D2E/DX2 analytically  !
 ! A35   A(16,17,22)           120.2472         calculate D2E/DX2 analytically  !
 ! A36   A(18,17,22)           120.2521         calculate D2E/DX2 analytically  !
 ! A37   A(17,18,19)           120.0542         calculate D2E/DX2 analytically  !
 ! A38   A(17,18,23)           120.1082         calculate D2E/DX2 analytically  !
 ! A39   A(19,18,23)           119.8376         calculate D2E/DX2 analytically  !
 ! A40   A(14,19,18)           121.0554         calculate D2E/DX2 analytically  !
 ! A41   A(14,19,24)           119.0247         calculate D2E/DX2 analytically  !
 ! A42   A(18,19,24)           119.9181         calculate D2E/DX2 analytically  !
 ! A43   A(2,25,26)            109.6553         calculate D2E/DX2 analytically  !
 ! A44   A(2,25,27)            114.6151         calculate D2E/DX2 analytically  !
 ! A45   A(2,25,28)            107.6822         calculate D2E/DX2 analytically  !
 ! A46   A(26,25,27)           107.4357         calculate D2E/DX2 analytically  !
 ! A47   A(26,25,28)           108.3385         calculate D2E/DX2 analytically  !
 ! A48   A(27,25,28)           108.9636         calculate D2E/DX2 analytically  !
 ! D1    D(4,1,2,3)           -175.1666         calculate D2E/DX2 analytically  !
 ! D2    D(4,1,2,25)             6.2099         calculate D2E/DX2 analytically  !
 ! D3    D(14,1,2,3)             4.8462         calculate D2E/DX2 analytically  !
 ! D4    D(14,1,2,25)         -173.7773         calculate D2E/DX2 analytically  !
 ! D5    D(2,1,4,9)            -71.0868         calculate D2E/DX2 analytically  !
 ! D6    D(2,1,4,12)           176.4437         calculate D2E/DX2 analytically  !
 ! D7    D(2,1,4,13)            42.28           calculate D2E/DX2 analytically  !
 ! D8    D(14,1,4,9)           108.8997         calculate D2E/DX2 analytically  !
 ! D9    D(14,1,4,12)           -3.5697         calculate D2E/DX2 analytically  !
 ! D10   D(14,1,4,13)         -137.7334         calculate D2E/DX2 analytically  !
 ! D11   D(2,1,14,15)           84.703          calculate D2E/DX2 analytically  !
 ! D12   D(2,1,14,19)          -93.4416         calculate D2E/DX2 analytically  !
 ! D13   D(4,1,14,15)          -95.285          calculate D2E/DX2 analytically  !
 ! D14   D(4,1,14,19)           86.5704         calculate D2E/DX2 analytically  !
 ! D15   D(1,2,25,26)          -87.6519         calculate D2E/DX2 analytically  !
 ! D16   D(1,2,25,27)           33.2532         calculate D2E/DX2 analytically  !
 ! D17   D(1,2,25,28)          154.6683         calculate D2E/DX2 analytically  !
 ! D18   D(3,2,25,26)           93.6801         calculate D2E/DX2 analytically  !
 ! D19   D(3,2,25,27)         -145.4147         calculate D2E/DX2 analytically  !
 ! D20   D(3,2,25,28)          -23.9997         calculate D2E/DX2 analytically  !
 ! D21   D(1,4,9,5)            -35.879          calculate D2E/DX2 analytically  !
 ! D22   D(1,4,9,10)          -158.6276         calculate D2E/DX2 analytically  !
 ! D23   D(1,4,9,11)            86.2925         calculate D2E/DX2 analytically  !
 ! D24   D(12,4,9,5)            87.5867         calculate D2E/DX2 analytically  !
 ! D25   D(12,4,9,10)          -35.162          calculate D2E/DX2 analytically  !
 ! D26   D(12,4,9,11)         -150.2419         calculate D2E/DX2 analytically  !
 ! D27   D(13,4,9,5)          -163.5137         calculate D2E/DX2 analytically  !
 ! D28   D(13,4,9,10)           73.7376         calculate D2E/DX2 analytically  !
 ! D29   D(13,4,9,11)          -41.3423         calculate D2E/DX2 analytically  !
 ! D30   D(6,5,9,4)            176.8912         calculate D2E/DX2 analytically  !
 ! D31   D(6,5,9,10)           -63.6925         calculate D2E/DX2 analytically  !
 ! D32   D(6,5,9,11)            57.2711         calculate D2E/DX2 analytically  !
 ! D33   D(7,5,9,4)            -62.3297         calculate D2E/DX2 analytically  !
 ! D34   D(7,5,9,10)            57.0867         calculate D2E/DX2 analytically  !
 ! D35   D(7,5,9,11)           178.0502         calculate D2E/DX2 analytically  !
 ! D36   D(8,5,9,4)             56.6688         calculate D2E/DX2 analytically  !
 ! D37   D(8,5,9,10)           176.0851         calculate D2E/DX2 analytically  !
 ! D38   D(8,5,9,11)           -62.9513         calculate D2E/DX2 analytically  !
 ! D39   D(1,14,15,16)        -179.204          calculate D2E/DX2 analytically  !
 ! D40   D(1,14,15,20)           0.7827         calculate D2E/DX2 analytically  !
 ! D41   D(19,14,15,16)         -1.0328         calculate D2E/DX2 analytically  !
 ! D42   D(19,14,15,20)        178.954          calculate D2E/DX2 analytically  !
 ! D43   D(1,14,19,18)         179.2248         calculate D2E/DX2 analytically  !
 ! D44   D(1,14,19,24)          -1.2666         calculate D2E/DX2 analytically  !
 ! D45   D(15,14,19,18)          1.0128         calculate D2E/DX2 analytically  !
 ! D46   D(15,14,19,24)       -179.4785         calculate D2E/DX2 analytically  !
 ! D47   D(14,15,16,17)          0.3693         calculate D2E/DX2 analytically  !
 ! D48   D(14,15,16,21)       -179.6447         calculate D2E/DX2 analytically  !
 ! D49   D(20,15,16,17)       -179.6174         calculate D2E/DX2 analytically  !
 ! D50   D(20,15,16,21)          0.3685         calculate D2E/DX2 analytically  !
 ! D51   D(15,16,17,18)          0.3398         calculate D2E/DX2 analytically  !
 ! D52   D(15,16,17,22)       -179.8633         calculate D2E/DX2 analytically  !
 ! D53   D(21,16,17,18)       -179.6462         calculate D2E/DX2 analytically  !
 ! D54   D(21,16,17,22)          0.1507         calculate D2E/DX2 analytically  !
 ! D55   D(16,17,18,19)         -0.3602         calculate D2E/DX2 analytically  !
 ! D56   D(16,17,18,23)        179.6598         calculate D2E/DX2 analytically  !
 ! D57   D(22,17,18,19)        179.8429         calculate D2E/DX2 analytically  !
 ! D58   D(22,17,18,23)         -0.1371         calculate D2E/DX2 analytically  !
 ! D59   D(17,18,19,14)         -0.3274         calculate D2E/DX2 analytically  !
 ! D60   D(17,18,19,24)       -179.8317         calculate D2E/DX2 analytically  !
 ! D61   D(23,18,19,14)        179.6527         calculate D2E/DX2 analytically  !
 ! D62   D(23,18,19,24)          0.1484         calculate D2E/DX2 analytically  !
 --------------------------------------------------------------------------------
 Trust Radius=5.00D-02 FncErr=1.00D-07 GrdErr=1.00D-06 EigMax=2.50D+02 EigMin=1.00D-04
 Number of steps in this run=     70 maximum allowed number of steps=    168.
 Search for a saddle point of order  1.
 GradGradGradGradGradGradGradGradGradGradGradGradGradGradGradGradGradGrad

                          Input orientation:                          
 ---------------------------------------------------------------------
 Center     Atomic      Atomic             Coordinates (Angstroms)
 Number     Number       Type             X           Y           Z
 ---------------------------------------------------------------------
      1          6           0        0.187160    0.831590   -0.031970
      2          6           0       -0.052340    2.260590   -0.074940
      3          8           0        0.880180    3.041580   -0.275650
      4          6           0       -0.793180   -0.147410    0.091250
      5          6           0       -0.637470    0.066240    2.875140
      6          1           0       -1.113310    0.078140    3.854630
      7          1           0        0.140510   -0.694710    2.857440
      8          1           0       -0.191710    1.040340    2.678420
      9          7           0       -1.607810   -0.220160    1.828570
     10          1           0       -2.013280   -1.145570    1.921390
     11          1           0       -2.368360    0.449960    1.832010
     12         35           0       -0.193270   -1.983220    0.014750
     13         35           0       -2.477370   -0.022400   -0.916420
     14          6           0        1.629610    0.440110   -0.132720
     15          6           0        2.461990    0.404170    0.981840
     16          6           0        3.799710    0.054240    0.862680
     17          6           0        4.329960   -0.259290   -0.380300
     18          6           0        3.514420   -0.213230   -1.502770
     19          6           0        2.178860    0.136690   -1.376760
     20          1           0        2.060810    0.652850    1.955920
     21          1           0        4.428740    0.026970    1.743940
     22          1           0        5.372910   -0.534650   -0.474680
     23          1           0        3.919490   -0.450750   -2.478770
     24          1           0        1.543580    0.169290   -2.254060
     25          6           0       -1.420690    2.871850    0.148700
     26          1           0       -1.960850    2.918950   -0.798230
     27          1           0       -2.047340    2.333030    0.854650
     28          1           0       -1.273820    3.887860    0.510030
 ---------------------------------------------------------------------
                    Distance matrix (angstroms):
                    1          2          3          4          5
     1  C    0.000000
     2  C    1.449568   0.000000
     3  O    2.328887   1.232811   0.000000
     4  C    1.390932   2.524862   3.620001   0.000000
     5  C    3.117221   3.722972   4.591665   2.796415   0.000000
     6  H    4.167082   4.618470   5.460329   3.783700   1.089021
     7  H    3.268097   4.167714   4.931858   2.970374   1.088398
     8  H    2.744692   3.014867   3.725646   2.909633   1.089161
     9  N    2.791004   3.492414   4.610508   1.920207   1.455642
    10  H    3.544956   4.408236   5.543584   2.415446   2.066634
    11  H    3.186023   3.504110   4.659585   2.422455   2.057022
    12  Br   2.840786   4.247097   5.146381   1.932859   3.546749
    13  Br   2.934497   3.435244   4.590392   1.966602   4.215331
    14  C    1.498022   2.479202   2.711037   2.503049   3.785056
    15  C    2.526925   3.299232   3.322550   3.419579   3.647661
    16  C    3.801998   4.537114   4.329394   4.661588   4.872238
    17  C    4.298156   5.064345   4.775738   5.146012   5.948043
    18  C    3.784912   4.569492   4.363351   4.593544   6.040065
    19  C    2.501642   3.344240   3.367105   3.326979   5.100523
    20  H    2.737557   3.342847   3.475604   3.501809   2.910291
    21  H    4.668219   5.327050   5.075322   5.479986   5.191112
    22  H    5.380949   6.116085   5.745751   6.204103   6.907028
    23  H    4.643438   5.376355   5.127135   5.376456   7.049646
    24  H    2.686299   3.416001   3.550247   3.325842   5.574611
    25  C    2.603936   1.515267   2.345823   3.084315   3.989781
    26  H    3.091630   2.144527   2.891294   3.399587   4.835591
    27  H    2.834327   2.202138   3.217141   2.882409   3.347902
    28  H    3.430599   2.117123   2.444013   4.085315   4.539104
                    6          7          8          9         10
     6  H    0.000000
     7  H    1.778693   0.000000
     8  H    1.777258   1.775617   0.000000
     9  N    2.106759   2.083361   2.077605   0.000000
    10  H    2.458623   2.391292   2.944387   1.014596   0.000000
    11  H    2.409231   2.942143   2.408893   1.013661   1.637005
    12  Br   4.454252   3.138878   4.029523   2.898145   2.765749
    13  Br   4.963233   4.641909   4.390505   2.886211   3.087079
    14  C    4.853204   3.527930   3.402939   3.842330   4.472627
    15  C    4.598042   3.180359   3.213288   4.203571   4.828301
    16  C    5.752400   4.234352   4.494523   5.499956   6.029201
    17  C    6.904903   5.312630   5.611622   6.335436   6.805877
    18  C    7.085373   5.534124   5.726184   6.110247   6.568835
    19  C    6.181363   4.772268   4.783374   4.973967   5.485984
    20  H    3.743051   2.513207   2.397082   3.773213   4.453506
    21  H    5.930594   4.488833   4.821694   6.042199   6.550264
    22  H    7.822371   6.205373   6.586929   7.357603   7.789106
    23  H    8.106834   6.543343   6.761799   7.011233   7.419026
    24  H    6.662092   5.370525   5.300879   5.172117   5.640434
    25  C    4.651152   4.742886   3.356234   3.523848   4.430943
    26  H    5.517031   5.553213   4.329680   4.108373   4.890747
    27  H    3.867405   4.238522   2.905262   2.767758   3.638647
    28  H    5.072088   5.339533   3.739151   4.327346   5.279598
                   11         12         13         14         15
    11  H    0.000000
    12  Br   3.735481   0.000000
    13  Br   2.790856   3.151032   0.000000
    14  C    4.454663   3.035979   4.206588   0.000000
    15  C    4.904811   3.699365   5.308732   1.391543   0.000000
    16  C    6.256299   4.562249   6.524784   2.418481   1.387856
    17  C    7.089770   4.856708   6.832517   2.800419   2.405185
    18  C    6.794680   4.379806   6.023435   2.420000   2.768046
    19  C    5.574186   3.472365   4.681634   1.393332   2.390544
    20  H    4.435546   3.974655   5.413075   2.143271   1.082413
    21  H    6.810818   5.328596   7.400967   3.395242   2.142704
    22  H    8.137416   5.772370   7.879367   3.883219   3.387667
    23  H    7.676663   5.047861   6.598806   3.397224   3.851106
    24  H    5.663746   3.577352   4.241941   2.140287   3.371898
    25  C    3.097929   5.009611   3.260021   3.911123   4.675336
    26  H    3.630446   5.274139   2.988696   4.413497   5.390202
    27  H    2.145749   4.772109   2.978198   4.251824   4.906194
    28  H    3.842500   5.990198   4.332831   4.553022   5.129813
                   16         17         18         19         20
    16  C    0.000000
    17  C    1.387251   0.000000
    18  C    2.397558   1.388224   0.000000
    19  C    2.765691   2.403532   1.386378   0.000000
    20  H    2.139458   3.382154   3.850404   3.374480   0.000000
    21  H    1.083070   2.145716   3.381539   3.848736   2.458405
    22  H    2.147157   1.082809   2.148084   3.386207   4.276445
    23  H    3.381516   2.146793   1.083085   2.142266   4.933467
    24  H    3.849341   3.385051   2.143588   1.083651   4.269109
    25  C    5.975054   6.569159   6.049825   4.771257   4.506756
    26  H    6.644489   7.060465   6.347087   5.021242   5.375342
    27  H    6.275424   6.993939   6.555459   5.259645   4.573040
    28  H    6.368808   7.028079   6.617971   5.436198   4.865763
                   21         22         23         24         25
    21  H    0.000000
    22  H    2.475712   0.000000
    23  H    4.280050   2.477064   0.000000
    24  H    4.932384   4.280829   2.465744   0.000000
    25  C    6.697310   7.625342   6.816215   4.675894   0.000000
    26  H    7.460096   8.112711   6.982656   4.686267   1.091177
    27  H    6.931693   8.065409   7.379985   5.219249   1.086914
    28  H    6.996299   8.044083   7.397765   5.422702   1.088304
                   26         27         28
    26  H    0.000000
    27  H    1.755789   0.000000
    28  H    1.767015   1.770478   0.000000
 Stoichiometry    C11H13Br2NO
 Framework group  C1[X(C11H13Br2NO)]
 Deg. of freedom    78
 Full point group                 C1      NOp   1
 Largest Abelian subgroup         C1      NOp   1
 Largest concise Abelian subgroup C1      NOp   1
                         Standard orientation:                         
 ---------------------------------------------------------------------
 Center     Atomic      Atomic             Coordinates (Angstroms)
 Number     Number       Type             X           Y           Z
 ---------------------------------------------------------------------
      1          6           0        0.187161    0.831591   -0.031970
      2          6           0       -0.052339    2.260591   -0.074940
      3          8           0        0.880182    3.041581   -0.275650
      4          6           0       -0.793180   -0.147409    0.091250
      5          6           0       -0.637469    0.066241    2.875140
      6          1           0       -1.113309    0.078141    3.854630
      7          1           0        0.140510   -0.694709    2.857440
      8          1           0       -0.191709    1.040341    2.678420
      9          7           0       -1.607810   -0.220158    1.828570
     10          1           0       -2.013280   -1.145568    1.921390
     11          1           0       -2.368359    0.449962    1.832010
     12         35           0       -0.193270   -1.983219    0.014750
     13         35           0       -2.477370   -0.022398   -0.916420
     14          6           0        1.629611    0.440110   -0.132720
     15          6           0        2.461991    0.404170    0.981840
     16          6           0        3.799711    0.054240    0.862680
     17          6           0        4.329960   -0.259290   -0.380300
     18          6           0        3.514420   -0.213230   -1.502770
     19          6           0        2.178861    0.136690   -1.376760
     20          1           0        2.060811    0.652850    1.955920
     21          1           0        4.428740    0.026970    1.743940
     22          1           0        5.372910   -0.534651   -0.474680
     23          1           0        3.919490   -0.450750   -2.478770
     24          1           0        1.543581    0.169291   -2.254060
     25          6           0       -1.420689    2.871852    0.148700
     26          1           0       -1.960849    2.918952   -0.798230
     27          1           0       -2.047339    2.333032    0.854650
     28          1           0       -1.273818    3.887861    0.510030
 ---------------------------------------------------------------------
 Rotational constants (GHZ):           0.5023184           0.2950035           0.2481543
 Standard basis: def2TZVP (5D, 7F)
 There are   656 symmetry adapted cartesian basis functions of A   symmetry.
 There are   577 symmetry adapted basis functions of A   symmetry.
   577 basis functions,   995 primitive gaussians,   656 cartesian basis functions
    82 alpha electrons       82 beta electrons
       nuclear repulsion energy      1874.0216845700 Hartrees.
 NAtoms=   28 NActive=   28 NUniq=   28 SFac= 1.00D+00 NAtFMM=   60 NAOKFM=F Big=F
 Integral buffers will be    131072 words long.
 Raffenetti 2 integral format.
 Two-electron integral symmetry is turned on.
 Nuclear repulsion after empirical dispersion term =     1873.9975528696 Hartrees.
 Force inversion solution in PCM.
 ------------------------------------------------------------------------------
 Polarizable Continuum Model (PCM)
 =================================
 Model                : PCM.
 Atomic radii         : UFF (Universal Force Field).
 Polarization charges : Total charges.
 Charge compensation  : None.
 Solution method      : Matrix inversion.
 Cavity type          : Scaled VdW (van der Waals Surface) (Alpha=1.100).
 Cavity algorithm     : GePol (No added spheres)
                        Default sphere list used, NSphG=   28.
                        Lebedev-Laikov grids with approx.  5.0 points / Ang**2.
                        Smoothing algorithm: York/Karplus (Gamma=1.0000).
                        Polarization charges: spherical gaussians, with
                                              point-specific exponents (IZeta= 3).
                        Self-potential: point-specific (ISelfS= 7).
                        Self-field    : sphere-specific E.n sum rule (ISelfD= 2).
 1st derivatives      : Analytical E(r).r(x)/FMM algorithm (CHGder, D1EAlg=3).
                        Cavity 1st derivative terms included.
 2nd derivatives      : Analytical E(r).r(xy)/FMM algorithm (CHGder, D2EAlg=3).
                        Cavity 2nd derivative terms included.
 Solvent              : Water, Eps=  78.355300 Eps(inf)=   1.777849
 ------------------------------------------------------------------------------
 One-electron integrals computed using PRISM.
   1 Symmetry operations used in ECPInt.
 ECPInt:  NShTT=   25878 NPrTT=   87193 LenC2=   24076 LenP2D=   57933.
 LDataN:  DoStor=T MaxTD1= 6 Len=  172
 NBasis=   577 RedAO= T EigKep=  6.97D-06  NBF=   577
 NBsUse=   577 1.00D-06 EigRej= -1.00D+00 NBFU=   577
 ExpMin= 9.52D-02 ExpMax= 5.65D+05 ExpMxC= 5.46D+03 IAcc=3 IRadAn=         5 AccDes= 0.00D+00
 Harris functional with IExCor= 4639 and IRadAn=       5 diagonalized for initial guess.
 HarFok:  IExCor= 4639 AccDes= 0.00D+00 IRadAn=         5 IDoV= 1 UseB2=F ITyADJ=14
 ICtDFT=  3500011 ScaDFX=  1.000000  1.000000  1.000000  1.000000
 FoFCou: FMM=F IPFlag=           0 FMFlag=      100000 FMFlg1=           0
         NFxFlg=           0 DoJE=T BraDBF=F KetDBF=T FulRan=T
         wScrn=  0.000000 ICntrl=       500 IOpCl=  0 I1Cent=   200000004 NGrid=           0
         NMat0=    1 NMatS0=      1 NMatT0=    0 NMatD0=    1 NMtDS0=    0 NMtDT0=    0
 Petite list used in FoFCou.
 Requested convergence on RMS density matrix=1.00D-08 within 128 cycles.
 Requested convergence on MAX density matrix=1.00D-06.
 Requested convergence on             energy=1.00D-06.
 No special actions if energy rises.
 Inv3:  Mode=1 IEnd=    15255075.
 Iteration    1 A*A^-1 deviation from unit magnitude is 3.33D-15 for   2211.
 Iteration    1 A*A^-1 deviation from orthogonality  is 2.72D-15 for   2251   2148.
 Iteration    1 A^-1*A deviation from unit magnitude is 3.44D-15 for   2211.
 Iteration    1 A^-1*A deviation from orthogonality  is 2.46D-15 for   2251   2148.
 Error on total polarization charges =  0.01652
 SCF Done:  E(RwB97XD) =  -5705.36849701     A.U. after   15 cycles
            NFock= 15  Conv=0.60D-08     -V/T= 2.0017
 DoSCS=F DFT=T ScalE2(SS,OS)=  1.000000  1.000000
 Range of M.O.s used for correlation:     1   577
 NBasis=   577 NAE=    82 NBE=    82 NFC=     0 NFV=     0
 NROrb=    577 NOA=    82 NOB=    82 NVA=   495 NVB=   495

 **** Warning!!: The largest alpha MO coefficient is  0.65313286D+02

   1 Symmetry operations used in ECPInt.
 ECPInt:  NShTT=   25878 NPrTT=   87193 LenC2=   24076 LenP2D=   57933.
 LDataN:  DoStor=T MaxTD1= 7 Len=  274
 Symmetrizing basis deriv contribution to polar:
 IMax=3 JMax=2 DiffMx= 0.00D+00
 G2DrvN: will do    29 centers at a time, making    1 passes.
 Calling FoFCou, ICntrl=  3107 FMM=F I1Cent=   0 AccDes= 0.00D+00.
 NEqPCM:  Using equilibrium solvation (IEInf=0, Eps=  78.3553, EpsInf=   1.7778)
 G2PCM: DoFxE=T DoFxN=T DoGrad=T DoDP/DQ/DG/TGxP=FFFF NFrqRd=   0 IEInf=0 SqF1=F DoCFld=F IF1Alg=4.
 End of G2Drv F.D. properties file   721 does not exist.
 End of G2Drv F.D. properties file   722 does not exist.
 End of G2Drv F.D. properties file   788 does not exist.
          IDoAtm=1111111111111111111111111111
 NEqPCM:  Using equilibrium solvation (IEInf=0, Eps=  78.3553, EpsInf=   1.7778)
          Differentiating once with respect to nuclear coordinates.
 CalDSu exits because no D1Ps are significant.
          There are    87 degrees of freedom in the 1st order CPHF.  IDoFFX=6 NUNeed=     0.
     81 vectors produced by pass  0 Test12= 4.67D-14 1.15D-09 XBig12= 1.19D-01 1.63D-01.
 AX will form    81 AO Fock derivatives at one time.
     81 vectors produced by pass  1 Test12= 4.67D-14 1.15D-09 XBig12= 3.25D-02 5.03D-02.
     81 vectors produced by pass  2 Test12= 4.67D-14 1.15D-09 XBig12= 7.86D-04 5.42D-03.
     81 vectors produced by pass  3 Test12= 4.67D-14 1.15D-09 XBig12= 1.15D-05 8.25D-04.
     81 vectors produced by pass  4 Test12= 4.67D-14 1.15D-09 XBig12= 1.39D-07 7.44D-05.
     81 vectors produced by pass  5 Test12= 4.67D-14 1.15D-09 XBig12= 1.39D-09 3.80D-06.
     81 vectors produced by pass  6 Test12= 4.67D-14 1.15D-09 XBig12= 1.08D-11 2.87D-07.
     49 vectors produced by pass  7 Test12= 4.67D-14 1.15D-09 XBig12= 8.28D-14 2.45D-08.
     11 vectors produced by pass  8 Test12= 4.67D-14 1.15D-09 XBig12= 5.71D-15 9.25D-09.
      8 vectors produced by pass  9 Test12= 4.67D-14 1.15D-09 XBig12= 3.38D-15 6.80D-09.
      4 vectors produced by pass 10 Test12= 4.67D-14 1.15D-09 XBig12= 7.43D-16 3.02D-09.
      3 vectors produced by pass 11 Test12= 4.67D-14 1.15D-09 XBig12= 5.10D-16 2.47D-09.
      2 vectors produced by pass 12 Test12= 4.67D-14 1.15D-09 XBig12= 1.35D-16 1.75D-09.
 InvSVY:  IOpt=1 It=  1 EMax= 3.61D-16
 Solved reduced A of dimension   644 with    87 vectors.
 End of Minotr F.D. properties file   721 does not exist.
 End of Minotr F.D. properties file   722 does not exist.
 End of Minotr F.D. properties file   788 does not exist.

 **********************************************************************

            Population analysis using the SCF density.

 **********************************************************************

 Orbital symmetries:
       Occupied  (A) (A) (A) (A) (A) (A) (A) (A) (A) (A) (A) (A)
                 (A) (A) (A) (A) (A) (A) (A) (A) (A) (A) (A) (A)
                 (A) (A) (A) (A) (A) (A) (A) (A) (A) (A) (A) (A)
                 (A) (A) (A) (A) (A) (A) (A) (A) (A) (A) (A) (A)
                 (A) (A) (A) (A) (A) (A) (A) (A) (A) (A) (A) (A)
                 (A) (A) (A) (A) (A) (A) (A) (A) (A) (A) (A) (A)
                 (A) (A) (A) (A) (A) (A) (A) (A) (A) (A)
       Virtual   (A) (A) (A) (A) (A) (A) (A) (A) (A) (A) (A) (A)
                 (A) (A) (A) (A) (A) (A) (A) (A) (A) (A) (A) (A)
                 (A) (A) (A) (A) (A) (A) (A) (A) (A) (A) (A) (A)
                 (A) (A) (A) (A) (A) (A) (A) (A) (A) (A) (A) (A)
                 (A) (A) (A) (A) (A) (A) (A) (A) (A) (A) (A) (A)
                 (A) (A) (A) (A) (A) (A) (A) (A) (A) (A) (A) (A)
                 (A) (A) (A) (A) (A) (A) (A) (A) (A) (A) (A) (A)
                 (A) (A) (A) (A) (A) (A) (A) (A) (A) (A) (A) (A)
                 (A) (A) (A) (A) (A) (A) (A) (A) (A) (A) (A) (A)
                 (A) (A) (A) (A) (A) (A) (A) (A) (A) (A) (A) (A)
                 (A) (A) (A) (A) (A) (A) (A) (A) (A) (A) (A) (A)
                 (A) (A) (A) (A) (A) (A) (A) (A) (A) (A) (A) (A)
                 (A) (A) (A) (A) (A) (A) (A) (A) (A) (A) (A) (A)
                 (A) (A) (A) (A) (A) (A) (A) (A) (A) (A) (A) (A)
                 (A) (A) (A) (A) (A) (A) (A) (A) (A) (A) (A) (A)
                 (A) (A) (A) (A) (A) (A) (A) (A) (A) (A) (A) (A)
                 (A) (A) (A) (A) (A) (A) (A) (A) (A) (A) (A) (A)
                 (A) (A) (A) (A) (A) (A) (A) (A) (A) (A) (A) (A)
                 (A) (A) (A) (A) (A) (A) (A) (A) (A) (A) (A) (A)
                 (A) (A) (A) (A) (A) (A) (A) (A) (A) (A) (A) (A)
                 (A) (A) (A) (A) (A) (A) (A) (A) (A) (A) (A) (A)
                 (A) (A) (A) (A) (A) (A) (A) (A) (A) (A) (A) (A)
                 (A) (A) (A) (A) (A) (A) (A) (A) (A) (A) (A) (A)
                 (A) (A) (A) (A) (A) (A) (A) (A) (A) (A) (A) (A)
                 (A) (A) (A) (A) (A) (A) (A) (A) (A) (A) (A) (A)
                 (A) (A) (A) (A) (A) (A) (A) (A) (A) (A) (A) (A)
                 (A) (A) (A) (A) (A) (A) (A) (A) (A) (A) (A) (A)
                 (A) (A) (A) (A) (A) (A) (A) (A) (A) (A) (A) (A)
                 (A) (A) (A) (A) (A) (A) (A) (A) (A) (A) (A) (A)
                 (A) (A) (A) (A) (A) (A) (A) (A) (A) (A) (A) (A)
                 (A) (A) (A) (A) (A) (A) (A) (A) (A) (A) (A) (A)
                 (A) (A) (A) (A) (A) (A) (A) (A) (A) (A) (A) (A)
                 (A) (A) (A) (A) (A) (A) (A) (A) (A) (A) (A) (A)
                 (A) (A) (A) (A) (A) (A) (A) (A) (A) (A) (A) (A)
                 (A) (A) (A) (A) (A) (A) (A) (A) (A) (A) (A) (A)
                 (A) (A) (A) (A) (A) (A) (A) (A) (A) (A) (A) (A)
                 (A) (A) (A) (A) (A) (A) (A) (A) (A) (A) (A) (A)
                 (A) (A) (A) (A) (A) (A) (A) (A) (A) (A) (A) (A)
                 (A) (A) (A) (A) (A) (A) (A) (A) (A) (A) (A) (A)
                 (A) (A) (A) (A) (A) (A) (A) (A) (A) (A) (A) (A)
                 (A) (A) (A) (A) (A) (A) (A) (A) (A) (A) (A) (A)
                 (A) (A) (A)
 The electronic state is 1-A.
 Alpha  occ. eigenvalues -- -483.14519-483.13974 -62.69349 -62.68821 -56.48487
 Alpha  occ. eigenvalues --  -56.48107 -56.48088 -56.47948 -56.47577 -56.47565
 Alpha  occ. eigenvalues --  -19.21204 -14.50501 -10.44741 -10.36423 -10.32529
 Alpha  occ. eigenvalues --  -10.29910 -10.28729 -10.28695 -10.28637 -10.28472
 Alpha  occ. eigenvalues --  -10.28420 -10.27966 -10.27783  -8.83449  -8.82925
 Alpha  occ. eigenvalues --   -6.65660  -6.65107  -6.64450  -6.64392  -6.63932
 Alpha  occ. eigenvalues --   -6.63895  -2.76037  -2.75699  -2.75654  -2.75483
 Alpha  occ. eigenvalues --   -2.75157  -2.75127  -2.74675  -2.74674  -2.74177
 Alpha  occ. eigenvalues --   -2.74177  -1.12162  -1.05897  -0.97333  -0.95291
 Alpha  occ. eigenvalues --   -0.88103  -0.87867  -0.84717  -0.84051  -0.80713
 Alpha  occ. eigenvalues --   -0.79995  -0.71029  -0.70043  -0.68562  -0.64990
 Alpha  occ. eigenvalues --   -0.62422  -0.59350  -0.58378  -0.56915  -0.55311
 Alpha  occ. eigenvalues --   -0.55031  -0.53657  -0.52548  -0.51993  -0.50496
 Alpha  occ. eigenvalues --   -0.49510  -0.49077  -0.48651  -0.47615  -0.46775
 Alpha  occ. eigenvalues --   -0.45742  -0.43589  -0.42370  -0.42207  -0.40194
 Alpha  occ. eigenvalues --   -0.38868  -0.37974  -0.36644  -0.33376  -0.33221
 Alpha  occ. eigenvalues --   -0.32096  -0.28853
 Alpha virt. eigenvalues --    0.01293   0.02863   0.05305   0.05719   0.06414
 Alpha virt. eigenvalues --    0.09687   0.12691   0.13891   0.14167   0.14504
 Alpha virt. eigenvalues --    0.15694   0.16594   0.17409   0.18099   0.18440
 Alpha virt. eigenvalues --    0.18905   0.19565   0.19766   0.20607   0.22073
 Alpha virt. eigenvalues --    0.22443   0.23196   0.23610   0.24200   0.25935
 Alpha virt. eigenvalues --    0.26337   0.26678   0.27305   0.27995   0.28455
 Alpha virt. eigenvalues --    0.29358   0.29450   0.30222   0.30489   0.31236
 Alpha virt. eigenvalues --    0.31484   0.32548   0.32845   0.33209   0.33584
 Alpha virt. eigenvalues --    0.34337   0.34499   0.35336   0.35557   0.36413
 Alpha virt. eigenvalues --    0.36869   0.37285   0.37915   0.38930   0.39212
 Alpha virt. eigenvalues --    0.39783   0.41099   0.41833   0.42580   0.43390
 Alpha virt. eigenvalues --    0.44842   0.45262   0.45511   0.46047   0.46962
 Alpha virt. eigenvalues --    0.47267   0.47947   0.48368   0.48870   0.49586
 Alpha virt. eigenvalues --    0.50618   0.50774   0.51198   0.51414   0.52012
 Alpha virt. eigenvalues --    0.52255   0.52930   0.53543   0.54018   0.55198
 Alpha virt. eigenvalues --    0.55730   0.56317   0.56956   0.57657   0.57968
 Alpha virt. eigenvalues --    0.58354   0.59349   0.59646   0.59766   0.60888
 Alpha virt. eigenvalues --    0.61319   0.61947   0.62625   0.63752   0.64212
 Alpha virt. eigenvalues --    0.65187   0.66182   0.67940   0.68286   0.68776
 Alpha virt. eigenvalues --    0.70966   0.71674   0.72537   0.73409   0.74735
 Alpha virt. eigenvalues --    0.75083   0.76709   0.77755   0.78158   0.78996
 Alpha virt. eigenvalues --    0.79439   0.80129   0.81745   0.83416   0.83783
 Alpha virt. eigenvalues --    0.84901   0.86362   0.87346   0.87641   0.89099
 Alpha virt. eigenvalues --    0.91178   0.91961   0.92477   0.93282   0.94107
 Alpha virt. eigenvalues --    0.95446   0.97278   0.97517   0.97966   0.98936
 Alpha virt. eigenvalues --    0.99502   1.00194   1.00980   1.02284   1.03913
 Alpha virt. eigenvalues --    1.06594   1.07433   1.08700   1.09534   1.10242
 Alpha virt. eigenvalues --    1.10671   1.11679   1.12622   1.13445   1.14679
 Alpha virt. eigenvalues --    1.15552   1.16664   1.18170   1.18703   1.20456
 Alpha virt. eigenvalues --    1.23100   1.23910   1.24928   1.26453   1.28106
 Alpha virt. eigenvalues --    1.30762   1.31673   1.32366   1.32499   1.33147
 Alpha virt. eigenvalues --    1.34143   1.35026   1.36953   1.37478   1.38602
 Alpha virt. eigenvalues --    1.39943   1.40556   1.41486   1.42025   1.42830
 Alpha virt. eigenvalues --    1.44321   1.44737   1.45504   1.46983   1.47132
 Alpha virt. eigenvalues --    1.48013   1.50407   1.51197   1.52738   1.52889
 Alpha virt. eigenvalues --    1.53150   1.54282   1.55444   1.55610   1.56660
 Alpha virt. eigenvalues --    1.57748   1.58347   1.58891   1.59149   1.59636
 Alpha virt. eigenvalues --    1.60941   1.61809   1.62162   1.62995   1.63581
 Alpha virt. eigenvalues --    1.63994   1.65033   1.65427   1.65784   1.66323
 Alpha virt. eigenvalues --    1.66528   1.67042   1.67724   1.69155   1.70128
 Alpha virt. eigenvalues --    1.70204   1.70837   1.71965   1.72738   1.74138
 Alpha virt. eigenvalues --    1.74496   1.75481   1.76230   1.76970   1.77736
 Alpha virt. eigenvalues --    1.78209   1.79664   1.79908   1.80727   1.81475
 Alpha virt. eigenvalues --    1.82930   1.83343   1.84111   1.85142   1.86321
 Alpha virt. eigenvalues --    1.87346   1.88044   1.88791   1.89952   1.90547
 Alpha virt. eigenvalues --    1.91051   1.94144   1.96057   1.96701   1.97598
 Alpha virt. eigenvalues --    1.99624   2.00966   2.01832   2.02758   2.03935
 Alpha virt. eigenvalues --    2.04614   2.06383   2.07502   2.08037   2.09347
 Alpha virt. eigenvalues --    2.09401   2.09968   2.11902   2.13635   2.15697
 Alpha virt. eigenvalues --    2.16463   2.17507   2.19153   2.20782   2.21298
 Alpha virt. eigenvalues --    2.22163   2.23461   2.25334   2.26021   2.27062
 Alpha virt. eigenvalues --    2.28895   2.29795   2.31898   2.32999   2.34571
 Alpha virt. eigenvalues --    2.36742   2.37826   2.40459   2.42321   2.43522
 Alpha virt. eigenvalues --    2.45393   2.45572   2.46419   2.49270   2.50989
 Alpha virt. eigenvalues --    2.51257   2.52618   2.54424   2.56448   2.58929
 Alpha virt. eigenvalues --    2.60137   2.60398   2.61850   2.62017   2.63548
 Alpha virt. eigenvalues --    2.64653   2.65633   2.67439   2.69142   2.70742
 Alpha virt. eigenvalues --    2.71071   2.71244   2.73422   2.73577   2.74291
 Alpha virt. eigenvalues --    2.75778   2.76148   2.77287   2.77573   2.78021
 Alpha virt. eigenvalues --    2.79005   2.80307   2.80688   2.82489   2.83013
 Alpha virt. eigenvalues --    2.84010   2.86011   2.87303   2.88248   2.88868
 Alpha virt. eigenvalues --    2.89652   2.90703   2.92089   2.93267   2.94102
 Alpha virt. eigenvalues --    2.94139   2.95512   2.95751   2.98845   2.99683
 Alpha virt. eigenvalues --    3.00848   3.02483   3.04022   3.06554   3.07531
 Alpha virt. eigenvalues --    3.09904   3.10673   3.11638   3.12841   3.13486
 Alpha virt. eigenvalues --    3.14735   3.16173   3.16931   3.17897   3.18248
 Alpha virt. eigenvalues --    3.20905   3.21739   3.22327   3.23681   3.24122
 Alpha virt. eigenvalues --    3.24639   3.25090   3.26785   3.27758   3.29328
 Alpha virt. eigenvalues --    3.29769   3.30911   3.31985   3.33050   3.33486
 Alpha virt. eigenvalues --    3.35559   3.36452   3.37215   3.37706   3.38127
 Alpha virt. eigenvalues --    3.39866   3.40479   3.41676   3.43120   3.44228
 Alpha virt. eigenvalues --    3.45339   3.46422   3.47471   3.48158   3.48697
 Alpha virt. eigenvalues --    3.50658   3.50987   3.51776   3.53676   3.54879
 Alpha virt. eigenvalues --    3.55893   3.56496   3.57793   3.58655   3.59829
 Alpha virt. eigenvalues --    3.61362   3.62548   3.63211   3.63363   3.65034
 Alpha virt. eigenvalues --    3.68048   3.68368   3.70032   3.72580   3.74352
 Alpha virt. eigenvalues --    3.75281   3.76615   3.79501   3.81472   3.82151
 Alpha virt. eigenvalues --    3.84035   3.85447   3.88166   3.89082   3.90184
 Alpha virt. eigenvalues --    3.92667   3.93372   3.95180   3.98184   3.99187
 Alpha virt. eigenvalues --    4.02373   4.03646   4.04682   4.05442   4.07763
 Alpha virt. eigenvalues --    4.11997   4.13306   4.13902   4.16274   4.17151
 Alpha virt. eigenvalues --    4.17726   4.18617   4.19373   4.20268   4.21215
 Alpha virt. eigenvalues --    4.23865   4.25607   4.26229   4.26778   4.30484
 Alpha virt. eigenvalues --    4.31274   4.31498   4.34050   4.34519   4.35686
 Alpha virt. eigenvalues --    4.37255   4.37994   4.40661   4.40744   4.43283
 Alpha virt. eigenvalues --    4.44493   4.46055   4.47917   4.50499   4.51769
 Alpha virt. eigenvalues --    4.53625   4.55254   4.56584   4.62053   4.62426
 Alpha virt. eigenvalues --    4.65963   4.66985   4.72170   4.77405   4.78583
 Alpha virt. eigenvalues --    4.79603   4.81571   4.82918   4.85202   4.93004
 Alpha virt. eigenvalues --    4.95415   4.96163   4.98760   4.99243   5.02333
 Alpha virt. eigenvalues --    5.04651   5.07672   5.11623   5.16016   5.18214
 Alpha virt. eigenvalues --    5.21361   5.25282   5.27598   5.31199   5.34095
 Alpha virt. eigenvalues --    5.34520   5.36635   5.38368   5.48660   5.50417
 Alpha virt. eigenvalues --    5.55735   5.58387   5.67673   5.68288   5.74658
 Alpha virt. eigenvalues --    5.85396   5.86670   6.20151   6.44910   6.52641
 Alpha virt. eigenvalues --    6.63588   6.72541   6.94068   7.17292   7.20376
 Alpha virt. eigenvalues --    7.74511   7.80394  22.24222  22.48910  22.51964
 Alpha virt. eigenvalues --   22.56832  22.72312  22.74084  22.89359  22.96116
 Alpha virt. eigenvalues --   23.02967  23.32940  23.44579  32.16624  44.10401
          Condensed to atoms (all electrons):
               1          2          3          4          5          6
     1  C    7.066298  -0.067429  -0.237660   0.258059   0.007596  -0.000610
     2  C   -0.067429   4.979438   0.712725  -0.025723  -0.000768   0.000099
     3  O   -0.237660   0.712725   8.054769   0.003601  -0.000379  -0.000004
     4  C    0.258059  -0.025723   0.003601   5.103238  -0.036500   0.004307
     5  C    0.007596  -0.000768  -0.000379  -0.036500   4.907075   0.404423
     6  H   -0.000610   0.000099  -0.000004   0.004307   0.404423   0.474030
     7  H   -0.014268   0.000541   0.000005   0.014414   0.416803  -0.012836
     8  H    0.035541  -0.007364   0.000016  -0.031916   0.412772  -0.018334
     9  N   -0.118580   0.015476   0.000222   0.090563   0.231725  -0.019752
    10  H    0.014434  -0.001209   0.000004  -0.025307  -0.019402  -0.003674
    11  H   -0.016597   0.002971  -0.000004   0.016745  -0.016922  -0.003821
    12  Br  -0.073713   0.003379  -0.000463   0.360801  -0.005622  -0.000336
    13  Br  -0.114997  -0.002204   0.000201   0.381748   0.005206  -0.000415
    14  C    0.102477  -0.144860  -0.035701  -0.192077   0.002410   0.000169
    15  C   -0.190102   0.026212   0.037667  -0.013914   0.004274   0.000305
    16  C    0.025867  -0.004486  -0.005691   0.001164   0.000742  -0.000023
    17  C   -0.012349   0.003048   0.003132  -0.000257  -0.000015   0.000000
    18  C    0.021380  -0.005402  -0.005841  -0.000056   0.000012  -0.000001
    19  C   -0.207974   0.034265   0.039694  -0.002155  -0.000193   0.000016
    20  H   -0.008740   0.000870   0.001031  -0.001225   0.001925   0.000144
    21  H   -0.000446  -0.000087  -0.000053   0.000012   0.000015  -0.000001
    22  H    0.000013   0.000007   0.000006  -0.000000  -0.000000  -0.000000
    23  H   -0.000178  -0.000095  -0.000057  -0.000013   0.000000  -0.000000
    24  H   -0.009341   0.000884   0.000237   0.002965  -0.000011   0.000000
    25  C   -0.173030   0.366830  -0.096248  -0.012274   0.000043  -0.000108
    26  H    0.008050  -0.024911   0.001945  -0.003281   0.000058   0.000004
    27  H    0.001442  -0.059376   0.005834   0.018912  -0.002526   0.000031
    28  H    0.019200  -0.045719   0.009378  -0.002601   0.000045   0.000010
               7          8          9         10         11         12
     1  C   -0.014268   0.035541  -0.118580   0.014434  -0.016597  -0.073713
     2  C    0.000541  -0.007364   0.015476  -0.001209   0.002971   0.003379
     3  O    0.000005   0.000016   0.000222   0.000004  -0.000004  -0.000463
     4  C    0.014414  -0.031916   0.090563  -0.025307   0.016745   0.360801
     5  C    0.416803   0.412772   0.231725  -0.019402  -0.016922  -0.005622
     6  H   -0.012836  -0.018334  -0.019752  -0.003674  -0.003821  -0.000336
     7  H    0.488348  -0.025659  -0.039416  -0.005680   0.005173   0.005476
     8  H   -0.025659   0.501428  -0.030876   0.005408  -0.004581   0.000916
     9  N   -0.039416  -0.030876   6.582174   0.359798   0.337879  -0.047558
    10  H   -0.005680   0.005408   0.359798   0.387280  -0.017474   0.001471
    11  H    0.005173  -0.004581   0.337879  -0.017474   0.406459   0.004830
    12  Br   0.005476   0.000916  -0.047558   0.001471   0.004830  34.892203
    13  Br   0.000267   0.000797  -0.086128   0.003359   0.000593  -0.075611
    14  C   -0.000790  -0.002005   0.028902  -0.000225  -0.001314  -0.015724
    15  C   -0.000957  -0.001291   0.001503   0.000049  -0.000108  -0.012509
    16  C    0.000506   0.000613  -0.000192   0.000002   0.000001   0.002410
    17  C   -0.000003  -0.000056   0.000034  -0.000001   0.000000   0.000286
    18  C   -0.000042   0.000067  -0.000059   0.000004  -0.000002   0.002362
    19  C    0.000193  -0.000564   0.001121  -0.000049   0.000052  -0.008150
    20  H   -0.002732   0.000389   0.000550   0.000023  -0.000056  -0.000507
    21  H    0.000028  -0.000002   0.000004  -0.000000   0.000000   0.000045
    22  H    0.000000  -0.000000   0.000000  -0.000000  -0.000000  -0.000004
    23  H    0.000000   0.000000  -0.000001   0.000000   0.000000  -0.000006
    24  H   -0.000000  -0.000008   0.000199  -0.000002  -0.000003   0.000687
    25  C   -0.000156   0.001614  -0.005951   0.000820  -0.003038   0.000051
    26  H    0.000001   0.000056  -0.000341  -0.000010   0.000149   0.000037
    27  H    0.000069   0.000087   0.005731  -0.000032   0.001882   0.000074
    28  H   -0.000001  -0.000098   0.000362  -0.000018   0.000009   0.000041
              13         14         15         16         17         18
     1  C   -0.114997   0.102477  -0.190102   0.025867  -0.012349   0.021380
     2  C   -0.002204  -0.144860   0.026212  -0.004486   0.003048  -0.005402
     3  O    0.000201  -0.035701   0.037667  -0.005691   0.003132  -0.005841
     4  C    0.381748  -0.192077  -0.013914   0.001164  -0.000257  -0.000056
     5  C    0.005206   0.002410   0.004274   0.000742  -0.000015   0.000012
     6  H   -0.000415   0.000169   0.000305  -0.000023   0.000000  -0.000001
     7  H    0.000267  -0.000790  -0.000957   0.000506  -0.000003  -0.000042
     8  H    0.000797  -0.002005  -0.001291   0.000613  -0.000056   0.000067
     9  N   -0.086128   0.028902   0.001503  -0.000192   0.000034  -0.000059
    10  H    0.003359  -0.000225   0.000049   0.000002  -0.000001   0.000004
    11  H    0.000593  -0.001314  -0.000108   0.000001   0.000000  -0.000002
    12  Br  -0.075611  -0.015724  -0.012509   0.002410   0.000286   0.002362
    13  Br  34.965190   0.010692   0.000341   0.000103  -0.000042   0.000284
    14  C    0.010692   5.498371   0.262158   0.077957  -0.149986   0.096781
    15  C    0.000341   0.262158   5.285606   0.345341   0.074940  -0.131308
    16  C    0.000103   0.077957   0.345341   5.053340   0.361761   0.058672
    17  C   -0.000042  -0.149986   0.074940   0.361761   5.067539   0.348597
    18  C    0.000284   0.096781  -0.131308   0.058672   0.348597   5.083275
    19  C   -0.000609   0.274841   0.116028  -0.113312   0.078535   0.330326
    20  H   -0.000004  -0.070554   0.447347  -0.035891   0.009397  -0.003565
    21  H   -0.000001   0.014700  -0.060325   0.457194  -0.058904   0.012081
    22  H   -0.000000  -0.004419   0.012518  -0.059393   0.456943  -0.059428
    23  H    0.000004   0.017871  -0.005880   0.013376  -0.063657   0.464109
    24  H    0.000535  -0.071896   0.018440  -0.005924   0.013616  -0.062304
    25  C   -0.008450   0.017249   0.001767  -0.000284   0.000095  -0.000187
    26  H   -0.003274  -0.001594  -0.000067   0.000007  -0.000002   0.000003
    27  H   -0.010878  -0.000923  -0.000399   0.000028  -0.000008   0.000026
    28  H    0.001955   0.000791  -0.000255   0.000009  -0.000003   0.000006
              19         20         21         22         23         24
     1  C   -0.207974  -0.008740  -0.000446   0.000013  -0.000178  -0.009341
     2  C    0.034265   0.000870  -0.000087   0.000007  -0.000095   0.000884
     3  O    0.039694   0.001031  -0.000053   0.000006  -0.000057   0.000237
     4  C   -0.002155  -0.001225   0.000012  -0.000000  -0.000013   0.002965
     5  C   -0.000193   0.001925   0.000015  -0.000000   0.000000  -0.000011
     6  H    0.000016   0.000144  -0.000001  -0.000000  -0.000000   0.000000
     7  H    0.000193  -0.002732   0.000028   0.000000   0.000000  -0.000000
     8  H   -0.000564   0.000389  -0.000002  -0.000000   0.000000  -0.000008
     9  N    0.001121   0.000550   0.000004   0.000000  -0.000001   0.000199
    10  H   -0.000049   0.000023  -0.000000  -0.000000   0.000000  -0.000002
    11  H    0.000052  -0.000056   0.000000  -0.000000   0.000000  -0.000003
    12  Br  -0.008150  -0.000507   0.000045  -0.000004  -0.000006   0.000687
    13  Br  -0.000609  -0.000004  -0.000001  -0.000000   0.000004   0.000535
    14  C    0.274841  -0.070554   0.014700  -0.004419   0.017871  -0.071896
    15  C    0.116028   0.447347  -0.060325   0.012518  -0.005880   0.018440
    16  C   -0.113312  -0.035891   0.457194  -0.059393   0.013376  -0.005924
    17  C    0.078535   0.009397  -0.058904   0.456943  -0.063657   0.013616
    18  C    0.330326  -0.003565   0.012081  -0.059428   0.464109  -0.062304
    19  C    5.289914   0.010243  -0.004545   0.011935  -0.067564   0.466630
    20  H    0.010243   0.507366  -0.006340  -0.000085   0.000026   0.000036
    21  H   -0.004545  -0.006340   0.515595  -0.006812  -0.000044   0.000023
    22  H    0.011935  -0.000085  -0.006812   0.513829  -0.007024  -0.000041
    23  H   -0.067564   0.000026  -0.000044  -0.007024   0.517937  -0.007661
    24  H    0.466630   0.000036   0.000023  -0.000041  -0.007661   0.516976
    25  C    0.003458   0.000199  -0.000005   0.000000  -0.000003   0.000021
    26  H   -0.000189  -0.000009   0.000000  -0.000000   0.000000  -0.000017
    27  H   -0.000411  -0.000074   0.000000  -0.000000   0.000000  -0.000004
    28  H   -0.000167   0.000002   0.000000  -0.000000   0.000000   0.000009
              25         26         27         28
     1  C   -0.173030   0.008050   0.001442   0.019200
     2  C    0.366830  -0.024911  -0.059376  -0.045719
     3  O   -0.096248   0.001945   0.005834   0.009378
     4  C   -0.012274  -0.003281   0.018912  -0.002601
     5  C    0.000043   0.000058  -0.002526   0.000045
     6  H   -0.000108   0.000004   0.000031   0.000010
     7  H   -0.000156   0.000001   0.000069  -0.000001
     8  H    0.001614   0.000056   0.000087  -0.000098
     9  N   -0.005951  -0.000341   0.005731   0.000362
    10  H    0.000820  -0.000010  -0.000032  -0.000018
    11  H   -0.003038   0.000149   0.001882   0.000009
    12  Br   0.000051   0.000037   0.000074   0.000041
    13  Br  -0.008450  -0.003274  -0.010878   0.001955
    14  C    0.017249  -0.001594  -0.000923   0.000791
    15  C    0.001767  -0.000067  -0.000399  -0.000255
    16  C   -0.000284   0.000007   0.000028   0.000009
    17  C    0.000095  -0.000002  -0.000008  -0.000003
    18  C   -0.000187   0.000003   0.000026   0.000006
    19  C    0.003458  -0.000189  -0.000411  -0.000167
    20  H    0.000199  -0.000009  -0.000074   0.000002
    21  H   -0.000005   0.000000   0.000000   0.000000
    22  H    0.000000  -0.000000  -0.000000  -0.000000
    23  H   -0.000003   0.000000   0.000000   0.000000
    24  H    0.000021  -0.000017  -0.000004   0.000009
    25  C    5.095233   0.392381   0.392614   0.390568
    26  H    0.392381   0.511514  -0.025558  -0.012008
    27  H    0.392614  -0.025558   0.590174  -0.015367
    28  H    0.390568  -0.012008  -0.015367   0.517853
 Mulliken charges:
               1
     1  C   -0.314343
     2  C    0.242887
     3  O   -0.488368
     4  C    0.090773
     5  C   -0.312786
     6  H    0.176376
     7  H    0.170715
     8  H    0.163051
     9  N   -0.307388
    10  H    0.300434
    11  H    0.287176
    12  Br  -0.034868
    13  Br  -0.068660
    14  C    0.286699
    15  C   -0.217380
    16  C   -0.173896
    17  C   -0.132638
    18  C   -0.149790
    19  C   -0.251367
    20  H    0.150238
    21  H    0.137867
    22  H    0.141956
    23  H    0.138858
    24  H    0.135957
    25  C   -0.363211
    26  H    0.157057
    27  H    0.098653
    28  H    0.135999
 Sum of Mulliken charges =  -0.00000
 Mulliken charges with hydrogens summed into heavy atoms:
               1
     1  C   -0.314343
     2  C    0.242887
     3  O   -0.488368
     4  C    0.090773
     5  C    0.197356
     9  N    0.280222
    12  Br  -0.034868
    13  Br  -0.068660
    14  C    0.286699
    15  C   -0.067142
    16  C   -0.036029
    17  C    0.009317
    18  C   -0.010932
    19  C   -0.115410
    25  C    0.028498
 APT charges:
               1
     1  C    0.132864
     2  C   -0.355790
     3  O   -0.005532
     4  C   -0.572794
     5  C   -1.070323
     6  H    0.792101
     7  H    0.224853
     8  H    0.197416
     9  N   -0.891347
    10  H    0.651659
    11  H    0.645280
    12  Br   0.174197
    13  Br   0.190571
    14  C   -0.307071
    15  C   -0.544216
    16  C   -0.610975
    17  C   -0.674235
    18  C   -0.589050
    19  C   -0.578983
    20  H    0.303416
    21  H    0.790256
    22  H    1.015754
    23  H    0.751859
    24  H    0.264761
    25  C   -1.195372
    26  H    0.403449
    27  H    0.192283
    28  H    0.664970
 Sum of APT charges =  -0.00000
 APT charges with hydrogens summed into heavy atoms:
               1
     1  C    0.132864
     2  C   -0.355790
     3  O   -0.005532
     4  C   -0.572794
     5  C    0.144047
     9  N    0.405593
    12  Br   0.174197
    13  Br   0.190571
    14  C   -0.307071
    15  C   -0.240801
    16  C    0.179282
    17  C    0.341519
    18  C    0.162809
    19  C   -0.314222
    25  C    0.065329
 Electronic spatial extent (au):  <R**2>=           4651.1725
 Charge=              0.0000 electrons
 Dipole moment (field-independent basis, Debye):
    X=             -5.8520    Y=             -4.5212    Z=              6.6724  Tot=              9.9603
 Quadrupole moment (field-independent basis, Debye-Ang):
   XX=           -105.6377   YY=           -130.9381   ZZ=            -96.2421
   XY=            -11.2443   XZ=             -8.0030   YZ=              2.1786
 Traceless Quadrupole moment (field-independent basis, Debye-Ang):
   XX=              5.3016   YY=            -19.9988   ZZ=             14.6972
   XY=            -11.2443   XZ=             -8.0030   YZ=              2.1786
 Octapole moment (field-independent basis, Debye-Ang**2):
  XXX=            -88.8397  YYY=           -118.3451  ZZZ=             17.4018  XYY=            -72.5830
  XXY=            -35.5416  XXZ=             11.7804  XZZ=            -41.6702  YZZ=            -20.8696
  YYZ=              6.9674  XYZ=              9.2345
 Hexadecapole moment (field-independent basis, Debye-Ang**3):
 XXXX=          -2956.2641 YYYY=          -1626.1970 ZZZZ=           -845.6086 XXXY=            -55.7657
 XXXZ=             35.3631 YYYX=            -78.1530 YYYZ=             20.9953 ZZZX=              4.3992
 ZZZY=             -1.6639 XXYY=           -836.0340 XXZZ=           -609.7442 YYZZ=           -409.2669
 XXYZ=              9.7841 YYXZ=             21.6433 ZZXY=              1.5559
 N-N= 1.873997552870D+03 E-N=-1.734894194437D+04  KE= 5.695437249158D+03
  Exact polarizability:   0.000   0.000   0.000   0.000   0.000   0.000
 Approx polarizability: 231.034   1.904 200.947   0.278  -2.383 207.996
   1 Symmetry operations used in ECPInt.
 ECPInt:  NShTT=   25878 NPrTT=   87193 LenC2=   24076 LenP2D=   57933.
 LDataN:  DoStor=T MaxTD1= 8 Len=  415
 D2PCM: PCM CHGder 2nd derivatives, FixD1E=F FixD2E=F DoIter=F DoCFld=F I1PDM=0
 Calling FoFJK, ICntrl=    100147 FMM=F ISym2X=0 I1Cent= 0 IOpClX= 0 NMat=1 NMatS=1 NMatT=0.
 ***** Axes restored to original set *****
 -------------------------------------------------------------------
 Center     Atomic                   Forces (Hartrees/Bohr)
 Number     Number              X              Y              Z
 -------------------------------------------------------------------
      1        6           0.000003329    0.000108577    0.000146278
      2        6           0.000040038   -0.000212628    0.000190048
      3        8          -0.000093358   -0.000150496   -0.000141495
      4        6           0.000165818    0.000285654   -0.000376452
      5        6           0.000020900    0.000001622   -0.000091287
      6        1           0.000007431    0.000111169   -0.000021600
      7        1          -0.000039220   -0.000079670    0.000086913
      8        1           0.000012322   -0.000031292   -0.000135024
      9        7          -0.000107333    0.000200812    0.000119447
     10        1           0.000103277   -0.000024419   -0.000080653
     11        1          -0.000127651   -0.000046457    0.000105436
     12       35           0.000056948   -0.000011194   -0.000086903
     13       35          -0.000116222   -0.000006266    0.000114446
     14        6           0.000032111   -0.000054299    0.000192086
     15        6           0.000043363    0.000024983   -0.000072016
     16        6          -0.000035895    0.000018638    0.000047057
     17        6          -0.000012689   -0.000000249   -0.000044702
     18        6           0.000074270   -0.000008470    0.000030021
     19        6          -0.000092130   -0.000001748    0.000020305
     20        1          -0.000000433    0.000001284    0.000045088
     21        1          -0.000004678   -0.000007618   -0.000002342
     22        1          -0.000000370    0.000004397    0.000002796
     23        1           0.000004007    0.000010176    0.000003958
     24        1           0.000003585    0.000010103    0.000000198
     25        6           0.000043568    0.000154532   -0.000344553
     26        1           0.000089254    0.000089529    0.000089747
     27        1          -0.000108323   -0.000353637    0.000208619
     28        1           0.000038080   -0.000033033   -0.000005415
 -------------------------------------------------------------------
 Cartesian Forces:  Max     0.000376452 RMS     0.000111781
 FormGI is forming the generalized inverse of G from B-inverse, IUseBI=4.

 GradGradGradGradGradGradGradGradGradGradGradGradGradGradGradGradGradGrad
 Berny optimization.
 Internal  Forces:  Max     0.000501738 RMS     0.000118468
 Search for a saddle point.
 Step number   1 out of a maximum of   70
 All quantities printed in internal units (Hartrees-Bohrs-Radians)
 Swapping is turned off.
 Second derivative matrix not updated -- analytic derivatives used.
 ITU=  0
     Eigenvalues ---   -0.03615  -0.00201   0.00140   0.00271   0.00438
     Eigenvalues ---    0.00658   0.01455   0.01618   0.01778   0.01853
     Eigenvalues ---    0.02026   0.02289   0.02424   0.02544   0.02630
     Eigenvalues ---    0.02683   0.02899   0.02990   0.03410   0.04032
     Eigenvalues ---    0.04681   0.04748   0.05015   0.05374   0.05608
     Eigenvalues ---    0.05660   0.08296   0.08692   0.10860   0.11370
     Eigenvalues ---    0.11680   0.11854   0.12325   0.12640   0.12711
     Eigenvalues ---    0.13026   0.13343   0.13402   0.14703   0.16210
     Eigenvalues ---    0.17256   0.17855   0.18134   0.18880   0.18993
     Eigenvalues ---    0.19491   0.19512   0.19799   0.21048   0.22680
     Eigenvalues ---    0.26127   0.27482   0.28309   0.30305   0.32661
     Eigenvalues ---    0.34395   0.34417   0.34587   0.34876   0.34937
     Eigenvalues ---    0.35313   0.35959   0.36177   0.36190   0.36382
     Eigenvalues ---    0.36624   0.37479   0.37902   0.41991   0.42546
     Eigenvalues ---    0.45117   0.45305   0.47592   0.47940   0.49514
     Eigenvalues ---    0.51803   0.56597   0.75067
 Eigenvectors required to have negative eigenvalues:
                          R6        D10       R8        D7        R2
   1                   -0.89974   0.19542   0.16305   0.16079   0.10707
                          D8        A10       R1        A7        D6
   1                    0.09158   0.08740  -0.08170   0.07512  -0.07363
 RFO step:  Lambda0=9.882181928D-07 Lambda=-2.01307298D-03.
 Linear search not attempted -- option 19 set.
 Iteration  1 RMS(Cart)=  0.01902896 RMS(Int)=  0.00047536
 Iteration  2 RMS(Cart)=  0.00049246 RMS(Int)=  0.00000150
 Iteration  3 RMS(Cart)=  0.00000028 RMS(Int)=  0.00000148
 Variable       Old X    -DE/DX   Delta X   Delta X   Delta X     New X
                                 (Linear)    (Quad)   (Total)
    R1        2.73929  -0.00050   0.00000  -0.00286  -0.00286   2.73642
    R2        2.62848  -0.00031   0.00000   0.00100   0.00100   2.62948
    R3        2.83085  -0.00001   0.00000  -0.00031  -0.00031   2.83054
    R4        2.32968  -0.00014   0.00000   0.00045   0.00045   2.33013
    R5        2.86344  -0.00012   0.00000   0.00009   0.00009   2.86353
    R6        3.62867   0.00004   0.00000  -0.00947  -0.00947   3.61919
    R7        3.65257   0.00003   0.00000   0.00070   0.00070   3.65328
    R8        3.71634   0.00004   0.00000   0.00065   0.00065   3.71699
    R9        2.05795  -0.00002   0.00000  -0.00018  -0.00018   2.05777
   R10        2.05677   0.00003   0.00000  -0.00014  -0.00014   2.05663
   R11        2.05822   0.00000   0.00000   0.00009   0.00009   2.05831
   R12        2.75076  -0.00010   0.00000   0.00009   0.00009   2.75086
   R13        1.91731  -0.00003   0.00000   0.00000   0.00000   1.91731
   R14        1.91554   0.00006   0.00000   0.00014   0.00014   1.91569
   R15        2.62964  -0.00000   0.00000  -0.00001  -0.00001   2.62962
   R16        2.63302  -0.00004   0.00000   0.00000   0.00000   2.63302
   R17        2.62267  -0.00003   0.00000  -0.00008  -0.00008   2.62259
   R18        2.04547   0.00004   0.00000   0.00010   0.00010   2.04556
   R19        2.62152   0.00002   0.00000   0.00014   0.00014   2.62166
   R20        2.04671  -0.00001   0.00000  -0.00003  -0.00003   2.04668
   R21        2.62336  -0.00004   0.00000  -0.00018  -0.00018   2.62318
   R22        2.04621  -0.00000   0.00000  -0.00000  -0.00000   2.04621
   R23        2.61987   0.00004   0.00000   0.00013   0.00013   2.62000
   R24        2.04673  -0.00000   0.00000   0.00000   0.00000   2.04674
   R25        2.04780   0.00000   0.00000   0.00001   0.00001   2.04781
   R26        2.06203  -0.00012   0.00000   0.00024   0.00024   2.06227
   R27        2.05397   0.00038   0.00000   0.00047   0.00047   2.05444
   R28        2.05660  -0.00003   0.00000   0.00004   0.00004   2.05663
    A1        2.18957  -0.00039   0.00000  -0.00263  -0.00263   2.18693
    A2        1.99843   0.00016   0.00000   0.00208   0.00208   2.00051
    A3        2.09518   0.00024   0.00000   0.00055   0.00055   2.09574
    A4        2.09944   0.00007   0.00000   0.00136   0.00135   2.10080
    A5        2.14421  -0.00029   0.00000  -0.00072  -0.00072   2.14349
    A6        2.03930   0.00022   0.00000  -0.00058  -0.00058   2.03872
    A7        1.98868  -0.00050   0.00000  -0.00202  -0.00202   1.98665
    A8        2.03336  -0.00006   0.00000  -0.00068  -0.00068   2.03268
    A9        2.11001   0.00029   0.00000  -0.00046  -0.00046   2.10955
   A10        1.70268   0.00037   0.00000   0.00197   0.00197   1.70464
   A11        1.67366  -0.00007   0.00000   0.00191   0.00191   1.67557
   A12        1.88168  -0.00004   0.00000   0.00014   0.00014   1.88182
   A13        1.91197  -0.00003   0.00000   0.00061   0.00061   1.91258
   A14        1.90869   0.00004   0.00000  -0.00003  -0.00003   1.90866
   A15        1.93643   0.00006   0.00000  -0.00045  -0.00045   1.93598
   A16        1.90690   0.00005   0.00000   0.00047   0.00047   1.90737
   A17        1.90417   0.00004   0.00000   0.00082   0.00082   1.90499
   A18        1.89540  -0.00016   0.00000  -0.00142  -0.00142   1.89398
   A19        1.93932  -0.00033   0.00000  -0.00119  -0.00119   1.93813
   A20        1.86175   0.00009   0.00000  -0.00042  -0.00042   1.86133
   A21        1.87165   0.00014   0.00000   0.00230   0.00230   1.87394
   A22        1.96068   0.00012   0.00000   0.00043   0.00043   1.96111
   A23        1.94727   0.00004   0.00000  -0.00068  -0.00068   1.94659
   A24        1.87845  -0.00005   0.00000  -0.00031  -0.00031   1.87814
   A25        2.12805   0.00006   0.00000   0.00085   0.00085   2.12890
   A26        2.09040  -0.00007   0.00000  -0.00071  -0.00071   2.08968
   A27        2.06429   0.00001   0.00000  -0.00014  -0.00014   2.06416
   A28        2.11099   0.00000   0.00000  -0.00002  -0.00002   2.11097
   A29        2.08651   0.00002   0.00000   0.00035   0.00035   2.08686
   A30        2.08569  -0.00002   0.00000  -0.00033  -0.00033   2.08536
   A31        2.09710  -0.00000   0.00000   0.00011   0.00011   2.09721
   A32        2.09012   0.00000   0.00000   0.00001   0.00001   2.09013
   A33        2.09597  -0.00000   0.00000  -0.00013  -0.00013   2.09584
   A34        2.08567   0.00000   0.00000  -0.00002  -0.00002   2.08565
   A35        2.09871   0.00000   0.00000   0.00002   0.00002   2.09873
   A36        2.09880  -0.00000   0.00000   0.00000   0.00000   2.09880
   A37        2.09534  -0.00000   0.00000  -0.00014  -0.00014   2.09520
   A38        2.09628   0.00000   0.00000   0.00013   0.00013   2.09642
   A39        2.09156   0.00000   0.00000   0.00001   0.00001   2.09157
   A40        2.11281  -0.00001   0.00000   0.00020   0.00020   2.11302
   A41        2.07737   0.00000   0.00000  -0.00010  -0.00010   2.07727
   A42        2.09297   0.00001   0.00000  -0.00011  -0.00011   2.09286
   A43        1.91385   0.00007   0.00000  -0.00466  -0.00466   1.90919
   A44        2.00041  -0.00026   0.00000   0.00185   0.00185   2.00226
   A45        1.87941  -0.00001   0.00000   0.00090   0.00090   1.88031
   A46        1.87511   0.00010   0.00000  -0.00232  -0.00232   1.87279
   A47        1.89086  -0.00001   0.00000  -0.00098  -0.00098   1.88988
   A48        1.90177   0.00014   0.00000   0.00511   0.00510   1.90688
    D1       -3.05723   0.00004   0.00000  -0.00810  -0.00810  -3.06534
    D2        0.10838   0.00002   0.00000  -0.01113  -0.01113   0.09726
    D3        0.08458   0.00009   0.00000  -0.00652  -0.00652   0.07806
    D4       -3.03299   0.00007   0.00000  -0.00955  -0.00955  -3.04253
    D5       -1.24070   0.00014   0.00000   0.00136   0.00136  -1.23934
    D6        3.07952   0.00006   0.00000   0.00071   0.00071   3.08024
    D7        0.73793  -0.00017   0.00000   0.00195   0.00195   0.73988
    D8        1.90066   0.00008   0.00000  -0.00030  -0.00030   1.90036
    D9       -0.06230  -0.00000   0.00000  -0.00095  -0.00095  -0.06325
   D10       -2.40390  -0.00022   0.00000   0.00029   0.00029  -2.40361
   D11        1.47835  -0.00005   0.00000  -0.00987  -0.00987   1.46848
   D12       -1.63086  -0.00002   0.00000  -0.00961  -0.00961  -1.64048
   D13       -1.66304   0.00000   0.00000  -0.00838  -0.00838  -1.67142
   D14        1.51094   0.00003   0.00000  -0.00812  -0.00812   1.50282
   D15       -1.52982  -0.00004   0.00000  -0.04732  -0.04732  -1.57713
   D16        0.58038  -0.00005   0.00000  -0.05253  -0.05253   0.52785
   D17        2.69947  -0.00006   0.00000  -0.04411  -0.04411   2.65536
   D18        1.63503  -0.00006   0.00000  -0.05027  -0.05027   1.58476
   D19       -2.53797  -0.00006   0.00000  -0.05548  -0.05548  -2.59345
   D20       -0.41887  -0.00007   0.00000  -0.04707  -0.04706  -0.46594
   D21       -0.62621   0.00010   0.00000   0.01044   0.01044  -0.61577
   D22       -2.76857   0.00009   0.00000   0.01090   0.01090  -2.75767
   D23        1.50609   0.00004   0.00000   0.01037   0.01037   1.51645
   D24        1.52868   0.00003   0.00000   0.00993   0.00993   1.53861
   D25       -0.61369   0.00001   0.00000   0.01040   0.01040  -0.60329
   D26       -2.62222  -0.00003   0.00000   0.00986   0.00986  -2.61236
   D27       -2.85385   0.00003   0.00000   0.01072   0.01072  -2.84314
   D28        1.28696   0.00002   0.00000   0.01118   0.01118   1.29815
   D29       -0.72156  -0.00003   0.00000   0.01065   0.01065  -0.71091
   D30        3.08733  -0.00008   0.00000  -0.01841  -0.01841   3.06893
   D31       -1.11164  -0.00011   0.00000  -0.01948  -0.01948  -1.13112
   D32        0.99957  -0.00007   0.00000  -0.02006  -0.02006   0.97951
   D33       -1.08786  -0.00005   0.00000  -0.01740  -0.01740  -1.10526
   D34        0.99635  -0.00008   0.00000  -0.01847  -0.01847   0.97788
   D35        3.10756  -0.00003   0.00000  -0.01905  -0.01905   3.08851
   D36        0.98906  -0.00006   0.00000  -0.01719  -0.01719   0.97187
   D37        3.07326  -0.00009   0.00000  -0.01825  -0.01825   3.05501
   D38       -1.09871  -0.00004   0.00000  -0.01884  -0.01884  -1.11755
   D39       -3.12770   0.00002   0.00000   0.00012   0.00012  -3.12758
   D40        0.01366   0.00002   0.00000   0.00002   0.00002   0.01368
   D41       -0.01802  -0.00000   0.00000  -0.00015  -0.00015  -0.01817
   D42        3.12334  -0.00000   0.00000  -0.00024  -0.00024   3.12309
   D43        3.12806  -0.00003   0.00000   0.00031   0.00031   3.12837
   D44       -0.02211  -0.00001   0.00000  -0.00012  -0.00012  -0.02222
   D45        0.01768  -0.00000   0.00000   0.00054   0.00054   0.01822
   D46       -3.13249   0.00001   0.00000   0.00011   0.00011  -3.13238
   D47        0.00645   0.00001   0.00000  -0.00027  -0.00027   0.00617
   D48       -3.13539   0.00000   0.00000  -0.00009  -0.00009  -3.13548
   D49       -3.13492   0.00001   0.00000  -0.00018  -0.00018  -3.13510
   D50        0.00643   0.00000   0.00000   0.00000   0.00000   0.00643
   D51        0.00593  -0.00000   0.00000   0.00031   0.00031   0.00624
   D52       -3.13921  -0.00001   0.00000   0.00028   0.00028  -3.13893
   D53       -3.13542  -0.00000   0.00000   0.00013   0.00013  -3.13529
   D54        0.00263  -0.00000   0.00000   0.00010   0.00010   0.00273
   D55       -0.00629  -0.00000   0.00000   0.00007   0.00007  -0.00622
   D56        3.13565  -0.00001   0.00000   0.00003   0.00003   3.13568
   D57        3.13885   0.00000   0.00000   0.00010   0.00010   3.13896
   D58       -0.00239  -0.00000   0.00000   0.00006   0.00006  -0.00233
   D59       -0.00571   0.00001   0.00000  -0.00051  -0.00051  -0.00622
   D60       -3.13865  -0.00001   0.00000  -0.00008  -0.00008  -3.13873
   D61        3.13553   0.00001   0.00000  -0.00046  -0.00046   3.13507
   D62        0.00259  -0.00001   0.00000  -0.00003  -0.00003   0.00256
         Item               Value     Threshold  Converged?
 Maximum Force            0.000502     0.000450     NO 
 RMS     Force            0.000118     0.000300     YES
 Maximum Displacement     0.099672     0.001800     NO 
 RMS     Displacement     0.019029     0.001200     NO 
 Predicted change in Energy=-4.449640D-05
 GradGradGradGradGradGradGradGradGradGradGradGradGradGradGradGradGradGrad

                          Input orientation:                          
 ---------------------------------------------------------------------
 Center     Atomic      Atomic             Coordinates (Angstroms)
 Number     Number       Type             X           Y           Z
 ---------------------------------------------------------------------
      1          6           0        0.187856    0.831966   -0.027790
      2          6           0       -0.053085    2.259381   -0.063733
      3          8           0        0.878815    3.044270   -0.253265
      4          6           0       -0.794170   -0.146509    0.092100
      5          6           0       -0.633913    0.075126    2.869632
      6          1           0       -1.111515    0.104209    3.847799
      7          1           0        0.140566   -0.689467    2.864442
      8          1           0       -0.183964    1.044342    2.658585
      9          7           0       -1.604381   -0.221165    1.825869
     10          1           0       -2.002282   -1.149622    1.921008
     11          1           0       -2.370429    0.442771    1.830768
     12         35           0       -0.195530   -1.982783    0.007802
     13         35           0       -2.477863   -0.015386   -0.916292
     14          6           0        1.629859    0.439754   -0.129683
[...]
 0072019,0.00585984,-0.13350407,0.00354064,-0.24571411,-0.01891362,0.00
 171882,-0.01728208,0.00314488,-0.00232933,-0.00355728,0.00086874,-0.00
 010124,0.00005575,-0.00021937,0.00076304,0.00067965,0.14406349,-0.0026
 9864,0.25827362,-0.00016285,-0.00027485,0.00005312,0.00000383,-0.00020
 093,0.00001163,-0.00000884,0.00014373,-0.00000868,0.00026001,0.0002140
 7,-0.00011740,-0.00003094,0.00000030,0.00000370,-0.00000931,-0.0000015
 3,0.00000946,0.00001276,0.00002319,-0.00001624,0.00002672,-0.00002182,
 -0.00001952,-0.00010591,-0.00004515,0.00013726,0.00000065,0.00000967,0
 .00000885,0.00000713,-0.00000438,0.00000330,-0.00004194,-0.00002647,0.
 00001133,-0.00009550,-0.00001498,-0.00002342,0.00055300,-0.00042754,-0
 .00017566,0.00151982,0.00181308,0.00203042,-0.00701719,0.00231586,-0.0
 0195313,-0.32057493,0.07386208,0.02328075,-0.01280498,0.00469299,0.004
 77493,0.00028051,0.00130801,-0.00365341,-0.00050613,0.00013356,-0.0000
 8523,0.00048119,-0.00111352,0.00041861,0.33842780,-0.00023538,-0.00093
 268,0.00019483,0.00013877,0.00002656,-0.00001446,0.00001410,-0.0000455
 3,0.00000207,-0.00012891,-0.00004921,0.00002009,-0.00000804,-0.0000126
 0,-0.00002855,0.00001317,0.00000238,-0.00000283,-0.00000123,-0.0000189
 7,0.00000917,0.00000218,0.00002233,-0.00000071,0.00001306,0.00000172,0
 .00000815,0.00000106,-0.00000163,0.00000050,0.00000109,0.00000055,-0.0
 0000052,-0.00002326,0.00001055,-0.00000223,-0.00002176,-0.00000676,-0.
 00001635,-0.00038440,-0.00087508,0.00001446,0.00166055,0.00689525,-0.0
 0228419,0.00661483,0.00179034,0.00036518,0.07381060,-0.05768885,-0.009
 15857,0.00050592,0.00316460,-0.00071391,0.00139052,0.00712551,-0.00058
 292,0.00033182,0.00003547,0.00000176,-0.00123026,-0.00382597,0.0006381
 4,-0.08146934,0.04814594,0.00006873,0.00014247,0.00025174,-0.00001571,
 0.00003995,-0.00001190,-0.00000109,-0.00001523,0.00003086,-0.00000244,
 -0.00001229,-0.00003772,-0.00000354,-0.00001610,-0.00002278,0.00002113
 ,0.00000636,-0.00000317,-0.00000992,-0.00003082,0.00001539,-0.00002617
 ,0.00003425,0.00000956,0.00000358,0.00000198,0.00001990,0.00000306,-0.
 00000126,0.00000339,0.00000092,0.00000188,0.00000279,0.00000010,0.0000
 0179,0.00001703,0.00004306,0.00000780,0.00001327,-0.00018430,-0.000002
 23,-0.00138104,0.00132223,-0.00206278,-0.00459490,0.02852351,-0.007233
 81,0.00252887,0.02328042,-0.00916013,-0.06220463,-0.02569563,0.0069057
 1,0.00695085,-0.00295534,-0.00081512,-0.00369833,0.00136183,-0.0003571
 0,-0.00008289,-0.00041410,0.00084407,0.00099354,-0.02487303,0.01091679
 ,0.06013636,-0.00074262,-0.00000003,0.00111161,-0.00025931,-0.00039615
 ,-0.00000456,0.00012297,0.00022154,0.00001049,0.00055240,0.00069798,-0
 .00035340,-0.00008392,-0.00002253,-0.00002809,0.00001482,0.00000636,0.
 00001908,0.00001444,0.00000572,-0.00000675,0.00001830,0.00000385,-0.00
 002664,-0.00027176,-0.00015360,0.00037750,-0.00000891,0.00002753,0.000
 04924,0.00001859,-0.00001189,0.00001107,-0.00000695,-0.00010247,0.0000
 2533,-0.00008753,-0.00002113,-0.00001259,-0.00413590,0.00281630,-0.000
 74312,-0.00112170,-0.00004157,-0.00067894,-0.00115676,0.00162954,-0.00
 358254,0.01105854,-0.00428954,-0.01802229,-0.09840420,0.02764063,0.094
 20788,-0.00627418,0.00640896,0.02910358,0.00004468,-0.00027727,0.00014
 984,0.00035444,-0.00019475,-0.00088916,0.00059239,-0.00107106,0.000801
 01,0.09904770,0.00023595,-0.00013225,-0.00026478,0.00006083,0.00017315
 ,-0.00008577,-0.00003648,-0.00013877,0.00005160,-0.00014407,-0.0001709
 1,0.00017089,0.00001430,0.00001032,-0.00000889,-0.00000680,-0.00001000
 ,-0.00000808,0.00000767,-0.00000128,-0.00000296,-0.00001049,-0.0000062
 0,0.00001420,0.00008402,0.00003347,-0.00013357,-0.00000199,-0.00000063
 ,-0.00000422,-0.00000144,0.00000270,-0.00001312,-0.00001154,-0.0000370
 7,0.00002715,0.00003629,0.00000833,0.00001136,0.00281101,0.00704138,-0
 .00071976,0.00005203,-0.00086845,0.00036518,0.00153790,0.00700107,-0.0
 0041161,-0.00022120,0.00386543,0.00152797,0.02778447,-0.05305353,-0.05
 702003,0.00208822,0.00232313,-0.00756738,-0.00025970,-0.00104737,0.000
 12031,0.00000883,0.00012015,0.00007306,-0.00119258,-0.00381382,0.00049
 537,-0.03167833,0.04268486,-0.00005559,0.00005413,-0.00007385,0.000091
 71,0.00019180,-0.00002443,0.00000526,-0.00014573,-0.00000148,-0.000256
 60,-0.00022860,0.00009681,0.00003095,0.00000221,0.00000367,0.00000282,
 0.00000072,-0.00000867,-0.00000961,-0.00001259,0.00001081,-0.00001564,
 0.00001098,0.00001579,0.00010846,0.00005363,-0.00012456,0.00000121,-0.
 00001227,-0.00001491,-0.00000742,0.00000461,-0.00000397,0.00003575,0.0
 0004496,-0.00001796,0.00008203,0.00001101,0.00001120,-0.00025881,-0.00
 066997,0.00208543,-0.00060199,0.00032948,0.00032427,-0.00423747,-0.000
 25926,-0.00233200,0.01243288,-0.00593178,-0.01741127,0.09411131,-0.057
 06699,-0.28876697,-0.00147347,0.00001130,0.00112751,0.00014586,0.00010
 143,-0.00008226,0.00056575,-0.00030912,-0.00103707,-0.00002707,0.00069
 205,0.00093835,-0.10119183,0.06261991,0.30460694,0.00096846,-0.0009609
 9,0.00059043,0.00039947,0.00032029,-0.00008220,-0.00013226,-0.00016566
 ,0.00008223,-0.00033870,-0.00039485,0.00027744,0.00005424,0.00001031,-
 0.00001303,0.00000125,-0.00000007,-0.00000466,-0.00000312,-0.00000584,
 0.00000216,-0.00000365,0.00000637,0.00000519,0.00004342,0.00002470,-0.
 00014813,-0.00000649,-0.00001092,-0.00000113,-0.00001362,0.00000248,0.
 00001041,-0.00001029,0.00003647,0.00008762,0.00018691,0.00002509,0.000
 01194,0.00836175,0.00041708,0.01114845,0.00032465,0.00194272,0.0025532
 0,-0.00055647,0.00000500,0.00080761,-0.00441124,0.00318122,0.00160841,
 -0.01238335,0.00032848,-0.02611441,-0.15332346,0.00969505,-0.13413595,
 0.00050309,-0.00000493,0.00053308,-0.00000936,-0.00027686,-0.00010203,
 -0.00077863,0.00006650,-0.00124732,0.00077487,-0.00116608,0.00049249,0
 .16033435,-0.00151710,-0.00331230,0.00067129,0.00058300,-0.00001566,-0
 .00030411,-0.00019752,0.00013579,0.00014267,-0.00006273,0.00044279,0.0
 0000555,-0.00004853,-0.00001556,-0.00002585,0.00001530,0.00000702,0.00
 000833,0.00000174,-0.00000612,0.00000804,-0.00000288,0.00000729,-0.000
 00761,-0.00021321,-0.00012727,0.00023687,-0.00002578,0.00002626,0.0000
 5447,0.00000083,-0.00001669,0.00001894,0.00014030,0.00003466,-0.000039
 48,-0.00006030,-0.00004090,-0.00002102,-0.00349028,0.00405569,-0.00594
 222,0.00197291,0.00597513,-0.00195782,-0.00007615,-0.00086172,-0.00005
 010,0.00309324,0.00675328,-0.00133140,0.00469943,0.00353254,0.00677578
 ,0.00971896,-0.04082085,0.00509794,-0.00017557,0.00011096,-0.00028325,
 -0.00029040,-0.00102282,0.00017908,0.00024334,0.00009902,0.00030575,-0
 .00130604,-0.00394715,0.00056462,-0.01298760,0.02914035,-0.00107536,0.
 00089429,0.00164078,0.00016100,-0.00043141,-0.00007950,0.00013579,0.00
 011777,0.00009921,0.00067451,0.00012235,-0.00029204,-0.00005967,-0.000
 02105,-0.00003477,0.00002801,0.00000513,0.00000528,-0.00001246,-0.0000
 4031,0.00001579,-0.00002918,0.00003529,-0.00000489,-0.00012950,-0.0000
 0852,0.00023960,0.00001199,-0.00001302,0.00000011,0.00000115,0.0000062
 4,0.00001557,-0.00000840,0.00011810,-0.00000094,0.00013157,0.00003985,
 0.00000779,-0.01876648,0.00155049,-0.01828512,0.00301203,-0.00219540,-
 0.00385459,0.00104191,-0.00012022,-0.00006302,0.00089772,-0.00104019,0
 .00175342,0.00413670,-0.00068802,0.00612469,-0.13271512,0.00493777,-0.
 24269324,-0.00090286,0.00005120,-0.00105821,-0.00009917,0.00016766,-0.
 00003881,0.00020577,-0.00005058,0.00013585,-0.00028221,0.00075953,0.00
 067780,0.14368157,-0.00416162,0.25576741,0.00106676,0.00758917,0.00321
 842,-0.15022956,0.04477367,0.01040563,-0.05738071,-0.00495112,0.015149
 44,-0.00232049,-0.00132572,0.00052712,0.00032045,-0.00007546,0.0005322
 8,-0.00002819,-0.00000351,-0.00008196,-0.00007248,-0.00001490,-0.00000
 727,0.00009876,-0.00000605,0.00011058,0.00121820,0.00033586,-0.0013289
 0,-0.00030335,0.00004790,0.00009968,-0.00062508,-0.00055518,0.00006219
 ,0.00003144,0.00043586,-0.00008281,0.00054242,-0.00057375,-0.00006018,
 0.00062570,-0.00150966,0.00137231,0.00023583,0.00011578,-0.00002962,0.
 00003974,0.00011288,-0.00000351,0.00002192,-0.00002791,0.00000052,0.00
 001156,0.00007156,0.00008364,-0.00025861,0.00024342,-0.00011442,0.0000
 1752,-0.00006293,0.00002897,0.00000472,-0.00000005,-0.00000284,-0.0000
 1208,-0.00000620,-0.00000062,-0.00002538,-0.00000096,0.00000456,-0.000
 01614,-0.00004045,-0.00004179,0.50431253,0.02514583,-0.00572812,-0.002
 47505,0.05050597,-0.11690877,-0.00578340,-0.02740483,0.01451238,0.0021
 0384,0.00155431,0.00052742,-0.00129064,-0.00016091,-0.00010141,0.00007
 195,0.00003535,0.00004405,0.00001799,0.00002826,0.00007487,-0.00004403
 ,0.00019716,-0.00011022,0.00011576,-0.00073879,0.00013202,0.00079262,0
 .00002745,0.00011000,-0.00011815,0.00010191,-0.00109829,0.00027128,-0.
 00014878,0.00008643,-0.00000289,-0.00147686,-0.00523616,-0.00150470,-0
 .00105026,-0.00409126,0.00048143,0.00036920,-0.00000160,-0.00033513,0.
 00016728,0.00023922,-0.00002998,0.00022101,-0.00010490,0.00004113,0.00
 004979,0.00024919,-0.00011243,0.00055696,-0.00000474,0.00020259,-0.000
 06555,-0.00011380,0.00009126,0.00008580,-0.00000976,0.00002700,0.00002
 380,-0.00004159,0.00000243,0.00007611,-0.00002662,-0.00004422,-0.00006
 918,-0.00010839,-0.00004814,0.06298757,0.56694750,0.00337297,0.0059614
 6,0.01216766,0.01751029,-0.01339435,-0.08705667,0.01815896,0.00007281,
 0.01691992,-0.00412611,-0.00137632,0.00150770,0.00011285,-0.00004566,0
 .00005884,-0.00006184,0.00001029,-0.00002699,0.00000758,-0.00002315,0.
 00002874,-0.00003530,0.00005425,0.00005867,0.00131080,-0.00022791,-0.0
 0135750,0.00020081,-0.00023572,-0.00016237,0.00020485,0.00104389,-0.00
 092315,0.00008939,0.00015798,-0.00056286,-0.00020406,-0.00186804,-0.00
 116599,0.00031557,0.00025014,0.00408851,0.00063562,-0.00019270,-0.0002
 4692,0.00011818,0.00011676,0.00009201,0.00002907,0.00000295,0.00004642
 ,-0.00014906,-0.00005273,0.00016072,-0.00076876,0.00014183,-0.00002797
 ,0.00002396,-0.00005219,-0.00004352,0.00004897,0.00000136,-0.00000655,
 -0.00000209,-0.00000400,-0.00000855,-0.00005077,0.00000195,0.00000805,
 -0.00003686,0.00005026,-0.00007950,-0.00840495,-0.00526408,0.54438385,
 -0.00008412,0.00185560,0.00214820,-0.01358527,-0.00066933,-0.02776919,
 -0.00078248,0.00098270,0.00468357,-0.00142073,-0.00072894,0.00043419,0
 .00005815,0.00002702,-0.00002654,-0.00003104,-0.00000357,-0.00001962,-
 0.00000668,-0.00001174,0.00000732,-0.00008357,0.00002155,0.00002675,0.
 00037254,0.00016613,-0.00039982,0.00011488,-0.00006627,-0.00014266,0.0
 0012408,0.00021205,-0.00005777,0.00001892,0.00023314,-0.00018992,0.000
 01643,-0.00097339,0.00024082,0.00017571,0.00022978,0.00068403,0.000063
 52,-0.00000250,0.00001152,0.00001597,0.00001645,0.00000558,-0.00002851
 ,0.00000924,0.00000864,-0.00002743,-0.00002570,0.00004870,-0.00020899,
 0.00004018,-0.00005911,0.00001865,-0.00001003,-0.00000513,-0.00000738,
 0.00000196,-0.00000603,-0.00000721,0.00000310,-0.00000060,-0.00002333,
 0.00000377,0.00000945,0.00000680,0.00001382,-0.00001397,-0.10813356,0.
 01187952,-0.11981000,0.11607252,0.00011507,-0.00235358,-0.00177634,0.0
 0556344,-0.00163320,0.01416986,-0.00108308,0.00016901,-0.00053816,0.00
 215292,0.00060235,0.00019193,-0.00006619,0.00007010,-0.00020039,-0.000
 00501,-0.00001813,0.00002093,0.00001468,-0.00000256,0.00000315,-0.0000
 4011,0.00001106,-0.00009271,-0.00061639,0.00004945,0.00040797,0.000078
 90,0.00001618,-0.00000855,0.00017431,0.00010885,0.00010567,-0.00013570
 ,0.00004428,-0.00002463,-0.00087198,-0.00190675,-0.00021357,-0.0001566
 6,-0.00017421,-0.00071443,-0.00006134,0.00000663,0.00001534,-0.0000119
 2,-0.00001190,-0.00001042,0.00001422,-0.00000744,-0.00000945,0.0000319
 0,0.00001762,-0.00004887,0.00021273,-0.00002694,0.00002769,-0.00002199
 ,0.00000528,0.00000092,0.00000244,-0.00000177,0.00000401,0.00000453,-0
 .00000178,0.00000050,0.00001889,-0.00000553,-0.00000642,-0.00000166,-0
 .00001194,0.00001204,0.01263451,-0.04312587,0.01994759,-0.01209858,0.0
 4636976,-0.00061412,-0.00087336,-0.00025952,0.00237562,0.00109160,0.00
 656303,0.00050199,0.00027704,-0.00093531,-0.00005299,0.00032923,-0.000
 59030,-0.00005948,-0.00008636,0.00012891,0.00003041,0.00001568,0.00000
 937,0.00000140,0.00001493,-0.00001219,0.00008598,-0.00002532,0.0000539
 8,0.00005674,-0.00002081,0.00024042,-0.00008262,0.00003205,0.00002684,
 -0.00018714,-0.00027592,0.00005497,0.00002539,0.00002570,0.00002120,-0
 .00027275,-0.00217016,-0.00006389,0.00001783,0.00011888,-0.00013735,-0
 .00002775,-0.00001222,0.00000699,-0.00000958,-0.00001141,-0.00000166,-
 0.00000307,0.00000145,-0.00000266,0.00000361,0.00000091,-0.00000404,-0
 .00000274,0.00000237,-0.00000368,0.00000311,0.00000629,-0.00000181,-0.
 00000266,-0.00000006,-0.00000010,-0.00000021,0.00000114,-0.00000005,0.
 00000010,-0.00000007,-0.00000001,0.00000236,-0.00000124,-0.00000307,-0
 .11362128,0.01891051,-0.25055118,0.12596677,-0.01982245,0.27107450,0.0
 0089905,0.00214624,-0.00135919,-0.00781605,-0.02275519,0.01613137,-0.0
 0993476,0.00287870,0.00060206,-0.00199387,-0.00008788,0.00141418,-0.00
 015123,0.00036869,-0.00039341,-0.00005332,-0.00006161,0.00002656,-0.00
 001638,-0.00009840,0.00002796,-0.00032300,0.00007999,-0.00025831,0.000
 32612,-0.00031618,-0.00046007,0.00025126,-0.00013643,-0.00005639,0.000
 75458,0.00050216,0.00009184,0.00000496,0.00016122,-0.00000151,0.000195
 28,-0.00184529,-0.00109391,0.00004556,-0.00015421,-0.00050001,-0.00005
 864,0.00004423,0.00007063,0.00000408,-0.00000396,-0.00002739,-0.000010
 89,-0.00000516,0.00000478,0.00002004,0.00001166,-0.00003025,0.00014359
 ,0.00000686,-0.00002536,-0.00001858,-0.00000444,0.00000690,-0.00000852
 ,0.00000240,-0.00000150,-0.00000228,0.00000047,0.00000043,0.00000442,-
 0.00000128,0.00000156,0.00000752,-0.00001180,0.00000203,-0.13880639,-0
 .08160147,0.10478120,0.00946788,0.00845326,-0.01003454,0.14945405,-0.0
 0072073,-0.00117164,0.00070433,0.00454523,0.00937818,-0.01155038,0.002
 88157,0.00090789,0.00127970,0.00159947,-0.00103755,-0.00197999,0.00012
 186,-0.00034699,0.00036162,0.00001441,0.00000156,-0.00001962,-0.000032
 69,0.00003335,-0.00012050,0.00017180,0.00003092,0.00012521,0.00002508,
 -0.00089809,0.00125872,-0.00012235,0.00002889,-0.00023829,-0.00060649,
 -0.00186850,0.00082663,-0.00013043,0.00018074,0.00004760,-0.00134359,-
 0.00537075,-0.00276074,0.00003957,0.00025643,0.00014888,-0.00000332,0.
 00001590,0.00000604,0.00000926,-0.00001631,0.00000715,-0.00002751,0.00
 001154,0.00000745,-0.00001225,-0.00001472,0.00001211,-0.00006706,0.000
 00784,-0.00001949,0.00002110,0.00000304,-0.00000935,-0.00000682,0.0000
 0148,-0.00000432,-0.00000409,0.00000252,0.00000062,-0.00000946,0.00000
 391,0.00000550,0.00000153,0.00000514,0.00000559,-0.08274572,-0.1266720
 1,0.09004064,-0.00185773,-0.00240370,0.00077915,0.09342611,0.14154377,
 -0.00014085,-0.00138443,0.00031786,-0.00346951,0.00345042,-0.00322360,
 0.00116985,-0.00021958,0.00104254,0.00198111,-0.00018365,0.00012752,0.
 00010341,0.00035281,-0.00002556,-0.00000603,0.00000006,-0.00002142,-0.
 00003090,-0.00007883,0.00003910,-0.00015485,-0.00005754,0.00004837,-0.
 00047650,0.00075235,-0.00013746,-0.00006234,0.00006093,0.00009727,0.00
 022530,0.00033994,0.00055734,-0.00006197,-0.00003784,-0.00009759,-0.00
 103043,-0.00085377,-0.00062412,-0.00005188,-0.00010086,0.00009912,0.00
 003404,-0.00001019,-0.00002063,-0.00001227,0.00001089,0.00000714,0.000
 00968,-0.00000390,-0.00001643,0.00001601,-0.00000487,0.00000922,-0.000
 03599,0.00000401,0.00002092,-0.00000872,-0.00000685,-0.00000428,0.0000
 0553,-0.00000015,0.00000190,0.00000281,-0.00000177,-0.00000102,0.00000
 253,0.00000012,-0.00000268,-0.00000221,0.00000374,0.00000094,0.1038766
 8,0.08785979,-0.15311542,0.01696942,0.01441249,-0.01679572,-0.11082693
 ,-0.09849822,0.16309084,-0.00428609,0.00022100,0.00006922,0.00063597,0
 .03106931,0.01285931,0.00283082,-0.00026304,-0.00163731,-0.00142633,-0
 .00033174,0.00040075,0.00000489,-0.00000553,-0.00002736,0.00000219,-0.
 00000467,0.00000724,0.00000451,-0.00000822,0.00002440,-0.00003521,0.00
 001432,-0.00000024,0.00019814,-0.00012163,-0.00026112,0.00006705,-0.00
 005031,0.00001101,0.00011234,0.00031636,-0.00029151,0.00009047,0.00000
 913,0.00003040,0.00014696,-0.00122056,-0.00036925,0.00018793,0.0011467
 6,-0.00058364,-0.00016066,0.00003757,0.00011553,-0.00006443,-0.0000837
 0,0.00000971,-0.00008097,0.00002792,-0.00002448,0.00001392,-0.00006658
 ,0.00000867,-0.00009506,-0.00000141,-0.00003877,0.00001808,0.00004071,
 -0.00002114,-0.00002972,0.00000157,-0.00000805,-0.00000706,0.00001209,
 -0.00000020,-0.00001610,0.00000766,0.00001345,0.00001998,0.00002348,0.
 00001441,-0.05033551,-0.04129669,-0.01327128,-0.00209575,-0.01430118,-
 0.00410038,-0.00238448,-0.01516675,-0.00802499,0.05668413,0.00258751,0
 .00050578,-0.00031732,-0.00202806,-0.01715336,-0.00494639,-0.00298328,
 0.00350154,0.00184568,0.00007513,0.00088555,-0.00001708,-0.00013493,-0
 .00002856,-0.00008692,0.00001077,0.00000297,0.00002958,0.00002391,0.00
 000663,0.00000708,-0.00000558,-0.00000861,-0.00004582,-0.00016022,-0.0
 0013900,0.00016406,0.00007665,-0.00000355,0.00004130,0.00018601,0.0002
 5312,-0.00022057,0.00000535,-0.00012072,-0.00002104,-0.00006555,-0.000
 32412,-0.00020543,-0.00029985,-0.00060298,0.00017459,0.00014446,-0.000
 01312,-0.00009989,0.00003811,0.00003426,0.00001563,0.00004424,-0.00002
 413,-0.00000163,0.00003265,0.00003661,-0.00002974,0.00014246,0.0000345
 0,0.00005247,-0.00002856,-0.00001904,0.00000796,0.00002748,-0.00000343
 ,0.00000638,0.00000898,-0.00000827,-0.00000084,0.00002238,-0.00000830,
 -0.00001137,-0.00001864,-0.00001855,-0.00000480,-0.03744859,-0.2794395
 9,-0.09511727,0.00075174,0.00421473,0.00169245,-0.00099869,-0.01261282
 ,-0.00580510,0.03999414,0.30105247,0.00019298,-0.00089915,0.00049369,-
 0.00355394,-0.00253916,-0.00241399,0.00046847,0.00083220,0.00035250,0.
 00104596,0.00072593,-0.00093217,-0.00001740,0.00000161,0.00007256,0.00
 001554,0.00000323,0.00000835,-0.00001002,0.00000216,-0.00002392,0.0000
 3747,-0.00001964,0.00001163,-0.00014042,0.00011322,0.00037483,-0.00010
 931,0.00007643,-0.00000947,-0.00018948,-0.00036987,0.00030310,0.000000
 98,-0.00006459,0.00003802,-0.00037199,-0.00044560,0.00023063,-0.000064
 15,-0.00007699,0.00037221,0.00010712,-0.00002404,-0.00004323,0.0000196
 8,0.00002048,0.00001463,0.00001581,-0.00000353,-0.00000257,0.00000497,
 -0.00001857,0.00001207,-0.00002926,0.00001184,0.00001627,-0.00000178,-
 0.00001332,-0.00000402,0.00001225,-0.00000152,0.00000226,0.00000313,-0
 .00000273,-0.00000077,0.00000359,0.00000168,-0.00000453,-0.00000668,0.
 00000239,0.00000347,-0.01169187,-0.09393672,-0.08418597,-0.00274461,-0
 .02585372,-0.00881768,0.00190731,0.01958396,0.00862584,0.01509563,0.10
 289403,0.08550628\\0.00000082,0.00000032,0.00000141,-0.00000414,-0.000
 00269,-0.00000542,-0.00000096,0.00000088,-0.00000079,0.00000098,-0.000
 00359,0.00000719,0.00000242,0.00000473,0.00000270,0.00000550,0.0000030
 0,0.00000304,0.00000339,0.00000206,0.00000170,0.00000260,0.00000148,0.
 00000293,0.00000287,0.00000204,0.00000213,0.00000171,0.00000176,0.0000
 0644,0.00000171,0.00000507,0.00000495,-0.00000064,-0.00000040,0.000003
 93,-0.00000360,-0.00000315,0.00000208,-0.00000097,-0.00000121,-0.00000
 213,0.00000123,-0.00000010,-0.00000302,0.00000034,-0.00000004,-0.00000
 448,-0.00000138,-0.00000139,-0.00000508,-0.00000317,-0.00000229,-0.000
 00357,-0.00000275,-0.00000173,-0.00000331,0.00000268,0.00000127,-0.000
 00259,0.00000185,0.00000058,-0.00000557,-0.00000174,-0.00000159,-0.000
 00648,-0.00000488,-0.00000326,-0.00000436,-0.00000437,-0.00000255,-0.0
 0000099,0.00000336,-0.00000042,-0.00000175,-0.00000393,-0.00000247,0.0
 0000253,-0.00000070,0.00000329,0.00000236,0.00000176,0.00000040,0.0000
 0616\\\@


 THERE ARE PEOPLE SO ADDICTED TO EXAGERATING THEY
 CAN'T TELL THE TRUTH WITHOUT LYING. -- FORTUNE COOKIE
 Job cpu time:       0 days 17 hours 23 minutes 39.0 seconds.
 Elapsed time:       0 days  1 hours  5 minutes 20.8 seconds.
 File lengths (MBytes):  RWF=   1081 Int=      0 D2E=      0 Chk=     40 Scr=      1
 Normal termination of Gaussian 16 at Mon Feb 22 15:59:55 2021.
