 Entering Gaussian System, Link 0=g16
 Initial command:
 /apps/gaussian/16/A.03/g16/l1.exe "/beegfs/scratch/user/q/tla25/Gau-21415.inp" -scrdir="/beegfs/scratch/user/q/tla25/"
 Entering Link 1 = /apps/gaussian/16/A.03/g16/l1.exe PID=     21416.
  
 Copyright (c) 1988,1990,1992,1993,1995,1998,2003,2009,2016,
            Gaussian, Inc.  All Rights Reserved.
  
 This is part of the Gaussian(R) 16 program.  It is based on
 the Gaussian(R) 09 system (copyright 2009, Gaussian, Inc.),
 the Gaussian(R) 03 system (copyright 2003, Gaussian, Inc.),
 the Gaussian(R) 98 system (copyright 1998, Gaussian, Inc.),
 the Gaussian(R) 94 system (copyright 1995, Gaussian, Inc.),
 the Gaussian 92(TM) system (copyright 1992, Gaussian, Inc.),
 the Gaussian 90(TM) system (copyright 1990, Gaussian, Inc.),
 the Gaussian 88(TM) system (copyright 1988, Gaussian, Inc.),
 the Gaussian 86(TM) system (copyright 1986, Carnegie Mellon
 University), and the Gaussian 82(TM) system (copyright 1983,
 Carnegie Mellon University). Gaussian is a federally registered
 trademark of Gaussian, Inc.
  
 This software contains proprietary and confidential information,
 including trade secrets, belonging to Gaussian, Inc.
  
 This software is provided under written license and may be
 used, copied, transmitted, or stored only in accord with that
 written license.
  
 The following legend is applicable only to US Government
 contracts under FAR:
  
                    RESTRICTED RIGHTS LEGEND
  
 Use, reproduction and disclosure by the US Government is
 subject to restrictions as set forth in subparagraphs (a)
 and (c) of the Commercial Computer Software - Restricted
 Rights clause in FAR 52.227-19.
  
 Gaussian, Inc.
 340 Quinnipiac St., Bldg. 40, Wallingford CT 06492
  
  
 ---------------------------------------------------------------
 Warning -- This program may not be used in any manner that
 competes with the business of Gaussian, Inc. or will provide
 assistance to any competitor of Gaussian, Inc.  The licensee
 of this program is prohibited from giving any competitor of
 Gaussian, Inc. access to this program.  By using this program,
 the user acknowledges that Gaussian, Inc. is engaged in the
 business of creating and licensing software in the field of
 computational chemistry and represents and warrants to the
 licensee that it is not a competitor of Gaussian, Inc. and that
 it will not use this program in any manner prohibited above.
 ---------------------------------------------------------------
  

 Cite this work as:
 Gaussian 16, Revision A.03,
 M. J. Frisch, G. W. Trucks, H. B. Schlegel, G. E. Scuseria, 
 M. A. Robb, J. R. Cheeseman, G. Scalmani, V. Barone, 
 G. A. Petersson, H. Nakatsuji, X. Li, M. Caricato, A. V. Marenich, 
 J. Bloino, B. G. Janesko, R. Gomperts, B. Mennucci, H. P. Hratchian, 
 J. V. Ortiz, A. F. Izmaylov, J. L. Sonnenberg, D. Williams-Young, 
 F. Ding, F. Lipparini, F. Egidi, J. Goings, B. Peng, A. Petrone, 
 T. Henderson, D. Ranasinghe, V. G. Zakrzewski, J. Gao, N. Rega, 
 G. Zheng, W. Liang, M. Hada, M. Ehara, K. Toyota, R. Fukuda, 
 J. Hasegawa, M. Ishida, T. Nakajima, Y. Honda, O. Kitao, H. Nakai, 
 T. Vreven, K. Throssell, J. A. Montgomery, Jr., J. E. Peralta, 
 F. Ogliaro, M. J. Bearpark, J. J. Heyd, E. N. Brothers, K. N. Kudin, 
 V. N. Staroverov, T. A. Keith, R. Kobayashi, J. Normand, 
 K. Raghavachari, A. P. Rendell, J. C. Burant, S. S. Iyengar, 
 J. Tomasi, M. Cossi, J. M. Millam, M. Klene, C. Adamo, R. Cammi, 
 J. W. Ochterski, R. L. Martin, K. Morokuma, O. Farkas, 
 J. B. Foresman, and D. J. Fox, Gaussian, Inc., Wallingford CT, 2016.
 
 ******************************************
 Gaussian 16:  ES64L-G16RevA.03 25-Dec-2016
                22-Feb-2021 
 ******************************************
 %nprocshared=16
 Will use up to   16 processors via shared memory.
 %mem=48GB
 ----------------------------------------------------------------------
 # wB97XD def2tzvp, opt=(ts, noeigen, calcfc, maxcycles=70, maxstep=8),
  freq=noraman, scrf=(iefpcm, solvent=water)
 ----------------------------------------------------------------------
 1/5=1,6=70,8=8,10=4,11=1,18=20,26=3,38=1/1,3;
 2/9=110,12=2,17=6,18=5,40=1/2;
 3/5=44,7=101,11=2,25=1,30=1,70=2201,71=2,72=1,74=-58,140=1/1,2,3;
 4//1;
 5/5=2,38=5,53=1/2;
 8/6=4,10=90,11=11/1;
 11/6=1,8=1,9=11,15=111,16=1/1,2,10;
 10/6=1,13=1/2;
 6/7=2,8=2,9=2,10=2,28=1/1;
 7/10=1,18=20,25=1/1,2,3,16;
 1/5=1,6=70,8=8,10=4,11=1,18=20,26=3/3(2);
 2/9=110/2;
 99//99;
 2/9=110/2;
 3/5=44,7=101,11=2,25=1,30=1,70=2205,71=1,72=1,74=-58/1,2,3;
 4/5=5,16=3,69=1/1;
 5/5=2,38=5,53=1/2;
 7//1,2,3,16;
 1/5=1,6=70,8=8,11=1,18=20,26=3/3(-5);
 2/9=110/2;
 6/7=2,8=2,9=2,10=2,19=2,28=1/1;
 99/9=1/99;
 ------------------------
 1_iteration/TS-710-1.out
 ------------------------
 Symbolic Z-matrix:
 Charge =  0 Multiplicity = 1
 C                    -0.51928   0.30907  -0.01079 
 C                    -1.93339   0.15069   0.37277 
 O                    -2.47896   0.8833    1.20106 
 C                     0.45937  -0.64576   0.1932 
 C                     2.39177  -1.11807   2.32824 
 H                     2.8781   -0.63795   3.1774 
 H                     1.94799  -2.05417   2.65685 
 H                     3.13282  -1.31577   1.5565 
 N                     1.3487   -0.24917   1.77689 
 H                     0.57151  -0.15094   2.42283 
 H                     1.70732   0.68443   1.60174 
 Br                    2.06392  -0.55672  -1.0209 
 C                     0.09909  -2.09214   0.40389 
 H                    -0.67858  -2.18812   1.16101 
 H                    -0.25683  -2.52893  -0.52588 
 H                     0.9707   -2.66144   0.71624 
 Br                    0.02634   2.14273  -0.14937 
 N                    -2.63479  -0.8568   -0.22245 
 C                    -2.34568  -1.38819  -1.53793 
 C                    -3.96017  -1.16087   0.27508 
 H                    -1.40858  -0.98154  -1.90757 
 H                    -2.28349  -2.47871  -1.51352 
 H                    -3.14669  -1.11158  -2.23055 
 H                    -4.0054   -0.97863   1.34515 
 H                    -4.72506  -0.54895  -0.21463 
 H                    -4.17884  -2.21096   0.07756 
 
 Add virtual bond connecting atoms N9         and C4         Dist= 3.51D+00.

 GradGradGradGradGradGradGradGradGradGradGradGradGradGradGradGradGradGrad
 Berny optimization.
 Initialization pass.
                           ----------------------------
                           !    Initial Parameters    !
                           ! (Angstroms and Degrees)  !
 --------------------------                            --------------------------
 ! Name  Definition              Value          Derivative Info.                !
 --------------------------------------------------------------------------------
 ! R1    R(1,2)                  1.4737         calculate D2E/DX2 analytically  !
 ! R2    R(1,4)                  1.3824         calculate D2E/DX2 analytically  !
 ! R3    R(1,17)                 1.9181         calculate D2E/DX2 analytically  !
 ! R4    R(2,3)                  1.2331         calculate D2E/DX2 analytically  !
 ! R5    R(2,18)                 1.3643         calculate D2E/DX2 analytically  !
 ! R6    R(4,9)                  1.8591         calculate D2E/DX2 analytically  !
 ! R7    R(4,12)                 2.0141         calculate D2E/DX2 analytically  !
 ! R8    R(4,13)                 1.5054         calculate D2E/DX2 analytically  !
 ! R9    R(5,6)                  1.09           calculate D2E/DX2 analytically  !
 ! R10   R(5,7)                  1.0868         calculate D2E/DX2 analytically  !
 ! R11   R(5,8)                  1.088          calculate D2E/DX2 analytically  !
 ! R12   R(5,9)                  1.4653         calculate D2E/DX2 analytically  !
 ! R13   R(9,10)                 1.0153         calculate D2E/DX2 analytically  !
 ! R14   R(9,11)                 1.0153         calculate D2E/DX2 analytically  !
 ! R15   R(13,14)                1.0896         calculate D2E/DX2 analytically  !
 ! R16   R(13,15)                1.0872         calculate D2E/DX2 analytically  !
 ! R17   R(13,16)                1.0869         calculate D2E/DX2 analytically  !
 ! R18   R(18,19)                1.4479         calculate D2E/DX2 analytically  !
 ! R19   R(18,20)                1.448          calculate D2E/DX2 analytically  !
 ! R20   R(19,21)                1.0863         calculate D2E/DX2 analytically  !
 ! R21   R(19,22)                1.0926         calculate D2E/DX2 analytically  !
 ! R22   R(19,23)                1.0945         calculate D2E/DX2 analytically  !
 ! R23   R(20,24)                1.0864         calculate D2E/DX2 analytically  !
 ! R24   R(20,25)                1.0951         calculate D2E/DX2 analytically  !
 ! R25   R(20,26)                1.0907         calculate D2E/DX2 analytically  !
 ! A1    A(2,1,4)              124.5171         calculate D2E/DX2 analytically  !
 ! A2    A(2,1,17)             113.2338         calculate D2E/DX2 analytically  !
 ! A3    A(4,1,17)             118.0063         calculate D2E/DX2 analytically  !
 ! A4    A(1,2,3)              122.3797         calculate D2E/DX2 analytically  !
 ! A5    A(1,2,18)             117.3307         calculate D2E/DX2 analytically  !
 ! A6    A(3,2,18)             120.2886         calculate D2E/DX2 analytically  !
 ! A7    A(1,4,9)              108.482          calculate D2E/DX2 analytically  !
 ! A8    A(1,4,12)             116.3911         calculate D2E/DX2 analytically  !
 ! A9    A(1,4,13)             120.9873         calculate D2E/DX2 analytically  !
 ! A10   A(9,4,12)              97.0639         calculate D2E/DX2 analytically  !
 ! A11   A(9,4,13)             101.55           calculate D2E/DX2 analytically  !
 ! A12   A(12,4,13)            108.5121         calculate D2E/DX2 analytically  !
 ! A13   A(6,5,7)              109.0274         calculate D2E/DX2 analytically  !
 ! A14   A(6,5,8)              109.1914         calculate D2E/DX2 analytically  !
 ! A15   A(6,5,9)              110.4601         calculate D2E/DX2 analytically  !
 ! A16   A(7,5,8)              109.6371         calculate D2E/DX2 analytically  !
 ! A17   A(7,5,9)              109.503          calculate D2E/DX2 analytically  !
 ! A18   A(8,5,9)              109.0081         calculate D2E/DX2 analytically  !
 ! A19   A(4,9,5)              122.3149         calculate D2E/DX2 analytically  !
 ! A20   A(4,9,10)             101.3271         calculate D2E/DX2 analytically  !
 ! A21   A(4,9,11)             102.6011         calculate D2E/DX2 analytically  !
 ! A22   A(5,9,10)             111.2776         calculate D2E/DX2 analytically  !
 ! A23   A(5,9,11)             111.023          calculate D2E/DX2 analytically  !
 ! A24   A(10,9,11)            106.9267         calculate D2E/DX2 analytically  !
 ! A25   A(4,13,14)            110.6525         calculate D2E/DX2 analytically  !
 ! A26   A(4,13,15)            110.162          calculate D2E/DX2 analytically  !
 ! A27   A(4,13,16)            110.582          calculate D2E/DX2 analytically  !
 ! A28   A(14,13,15)           108.9784         calculate D2E/DX2 analytically  !
 ! A29   A(14,13,16)           109.0579         calculate D2E/DX2 analytically  !
 ! A30   A(15,13,16)           107.3294         calculate D2E/DX2 analytically  !
 ! A31   A(2,18,19)            124.3849         calculate D2E/DX2 analytically  !
 ! A32   A(2,18,20)            118.4084         calculate D2E/DX2 analytically  !
 ! A33   A(19,18,20)           114.7005         calculate D2E/DX2 analytically  !
 ! A34   A(18,19,21)           110.1207         calculate D2E/DX2 analytically  !
 ! A35   A(18,19,22)           110.9397         calculate D2E/DX2 analytically  !
 ! A36   A(18,19,23)           109.6374         calculate D2E/DX2 analytically  !
 ! A37   A(21,19,22)           109.398          calculate D2E/DX2 analytically  !
 ! A38   A(21,19,23)           108.747          calculate D2E/DX2 analytically  !
 ! A39   A(22,19,23)           107.9424         calculate D2E/DX2 analytically  !
 ! A40   A(18,20,24)           109.957          calculate D2E/DX2 analytically  !
 ! A41   A(18,20,25)           111.6122         calculate D2E/DX2 analytically  !
 ! A42   A(18,20,26)           108.8735         calculate D2E/DX2 analytically  !
 ! A43   A(24,20,25)           108.5198         calculate D2E/DX2 analytically  !
 ! A44   A(24,20,26)           109.362          calculate D2E/DX2 analytically  !
 ! A45   A(25,20,26)           108.4794         calculate D2E/DX2 analytically  !
 ! D1    D(4,1,2,3)            117.4732         calculate D2E/DX2 analytically  !
 ! D2    D(4,1,2,18)           -62.1553         calculate D2E/DX2 analytically  !
 ! D3    D(17,1,2,3)           -38.7934         calculate D2E/DX2 analytically  !
 ! D4    D(17,1,2,18)          141.5781         calculate D2E/DX2 analytically  !
 ! D5    D(2,1,4,9)            -95.9197         calculate D2E/DX2 analytically  !
 ! D6    D(2,1,4,12)           155.9846         calculate D2E/DX2 analytically  !
 ! D7    D(2,1,4,13)            20.6311         calculate D2E/DX2 analytically  !
 ! D8    D(17,1,4,9)            59.3154         calculate D2E/DX2 analytically  !
 ! D9    D(17,1,4,12)          -48.7804         calculate D2E/DX2 analytically  !
 ! D10   D(17,1,4,13)          175.8662         calculate D2E/DX2 analytically  !
 ! D11   D(1,2,18,19)          -27.9036         calculate D2E/DX2 analytically  !
 ! D12   D(1,2,18,20)          171.0428         calculate D2E/DX2 analytically  !
 ! D13   D(3,2,18,19)          152.4597         calculate D2E/DX2 analytically  !
 ! D14   D(3,2,18,20)           -8.5938         calculate D2E/DX2 analytically  !
 ! D15   D(1,4,9,5)            176.0188         calculate D2E/DX2 analytically  !
 ! D16   D(1,4,9,10)            51.6427         calculate D2E/DX2 analytically  !
 ! D17   D(1,4,9,11)           -58.7859         calculate D2E/DX2 analytically  !
 ! D18   D(12,4,9,5)           -63.0725         calculate D2E/DX2 analytically  !
 ! D19   D(12,4,9,10)          172.5513         calculate D2E/DX2 analytically  !
 ! D20   D(12,4,9,11)           62.1228         calculate D2E/DX2 analytically  !
 ! D21   D(13,4,9,5)            47.5292         calculate D2E/DX2 analytically  !
 ! D22   D(13,4,9,10)          -76.847          calculate D2E/DX2 analytically  !
 ! D23   D(13,4,9,11)          172.7245         calculate D2E/DX2 analytically  !
 ! D24   D(1,4,13,14)          -49.2652         calculate D2E/DX2 analytically  !
 ! D25   D(1,4,13,15)           71.3073         calculate D2E/DX2 analytically  !
 ! D26   D(1,4,13,16)         -170.2145         calculate D2E/DX2 analytically  !
 ! D27   D(9,4,13,14)           70.745          calculate D2E/DX2 analytically  !
 ! D28   D(9,4,13,15)         -168.6824         calculate D2E/DX2 analytically  !
 ! D29   D(9,4,13,16)          -50.2043         calculate D2E/DX2 analytically  !
 ! D30   D(12,4,13,14)         172.3284         calculate D2E/DX2 analytically  !
 ! D31   D(12,4,13,15)         -67.0991         calculate D2E/DX2 analytically  !
 ! D32   D(12,4,13,16)          51.3791         calculate D2E/DX2 analytically  !
 ! D33   D(6,5,9,4)            172.0345         calculate D2E/DX2 analytically  !
 ! D34   D(6,5,9,10)           -68.2473         calculate D2E/DX2 analytically  !
 ! D35   D(6,5,9,11)            50.7256         calculate D2E/DX2 analytically  !
 ! D36   D(7,5,9,4)            -67.8799         calculate D2E/DX2 analytically  !
 ! D37   D(7,5,9,10)            51.8384         calculate D2E/DX2 analytically  !
 ! D38   D(7,5,9,11)           170.8112         calculate D2E/DX2 analytically  !
 ! D39   D(8,5,9,4)             52.0597         calculate D2E/DX2 analytically  !
 ! D40   D(8,5,9,10)           171.778          calculate D2E/DX2 analytically  !
 ! D41   D(8,5,9,11)           -69.2491         calculate D2E/DX2 analytically  !
 ! D42   D(2,18,19,21)           8.8192         calculate D2E/DX2 analytically  !
 ! D43   D(2,18,19,22)         130.0788         calculate D2E/DX2 analytically  !
 ! D44   D(2,18,19,23)        -110.7939         calculate D2E/DX2 analytically  !
 ! D45   D(20,18,19,21)        170.4978         calculate D2E/DX2 analytically  !
 ! D46   D(20,18,19,22)        -68.2426         calculate D2E/DX2 analytically  !
 ! D47   D(20,18,19,23)         50.8848         calculate D2E/DX2 analytically  !
 ! D48   D(2,18,20,24)         -32.8477         calculate D2E/DX2 analytically  !
 ! D49   D(2,18,20,25)          87.6389         calculate D2E/DX2 analytically  !
 ! D50   D(2,18,20,26)        -152.6425         calculate D2E/DX2 analytically  !
 ! D51   D(19,18,20,24)        164.3059         calculate D2E/DX2 analytically  !
 ! D52   D(19,18,20,25)        -75.2074         calculate D2E/DX2 analytically  !
 ! D53   D(19,18,20,26)         44.5111         calculate D2E/DX2 analytically  !
 --------------------------------------------------------------------------------
 Trust Radius=8.00D-02 FncErr=1.00D-07 GrdErr=1.00D-06 EigMax=2.50D+02 EigMin=1.00D-04
 Number of steps in this run=     70 maximum allowed number of steps=    156.
 Search for a saddle point of order  1.
 GradGradGradGradGradGradGradGradGradGradGradGradGradGradGradGradGradGrad

                          Input orientation:                          
 ---------------------------------------------------------------------
 Center     Atomic      Atomic             Coordinates (Angstroms)
 Number     Number       Type             X           Y           Z
 ---------------------------------------------------------------------
      1          6           0       -0.519280    0.309070   -0.010790
      2          6           0       -1.933390    0.150690    0.372770
      3          8           0       -2.478960    0.883300    1.201060
      4          6           0        0.459370   -0.645760    0.193200
      5          6           0        2.391770   -1.118070    2.328240
      6          1           0        2.878100   -0.637950    3.177400
      7          1           0        1.947990   -2.054170    2.656850
      8          1           0        3.132820   -1.315770    1.556500
      9          7           0        1.348700   -0.249170    1.776890
     10          1           0        0.571510   -0.150940    2.422830
     11          1           0        1.707320    0.684430    1.601740
     12         35           0        2.063920   -0.556720   -1.020900
     13          6           0        0.099090   -2.092140    0.403890
     14          1           0       -0.678580   -2.188120    1.161010
     15          1           0       -0.256830   -2.528930   -0.525880
     16          1           0        0.970700   -2.661440    0.716240
     17         35           0        0.026340    2.142730   -0.149370
     18          7           0       -2.634790   -0.856800   -0.222450
     19          6           0       -2.345680   -1.388190   -1.537930
     20          6           0       -3.960170   -1.160870    0.275080
     21          1           0       -1.408580   -0.981540   -1.907570
     22          1           0       -2.283490   -2.478710   -1.513520
     23          1           0       -3.146690   -1.111580   -2.230550
     24          1           0       -4.005400   -0.978630    1.345150
     25          1           0       -4.725060   -0.548950   -0.214630
     26          1           0       -4.178840   -2.210960    0.077560
 ---------------------------------------------------------------------
                    Distance matrix (angstroms):
                    1          2          3          4          5
     1  C    0.000000
     2  C    1.473740   0.000000
     3  O    2.374588   1.233057   0.000000
     4  C    1.382414   2.528216   3.462310   0.000000
     5  C    3.997750   4.913311   5.385167   2.918157   0.000000
     6  H    4.754324   5.624797   5.909163   3.841323   1.090002
     7  H    4.334585   5.014333   5.508715   3.204556   1.086834
     8  H    4.293523   5.405387   6.037741   3.074872   1.088036
     9  N    2.645143   3.592152   4.032995   1.859103   1.465254
    10  H    2.706278   3.250885   3.444959   2.286629   2.063404
    11  H    2.774688   3.879435   4.210111   2.304511   2.060408
    12  Br   2.905656   4.291996   5.258186   2.014087   3.411647
    13  C    2.513991   3.026918   4.016848   1.505393   3.147748
    14  H    2.763051   2.768737   3.560420   2.147198   3.454632
    15  H    2.896281   3.286151   4.423064   2.139240   4.141450
    16  H    3.401844   4.057066   4.969948   2.144294   2.645747
    17  Br   1.918128   2.842779   3.112291   2.842630   4.729337
    18  N    2.424755   1.364289   2.253578   3.129078   5.642746
    19  C    2.923796   2.487752   3.560828   3.378804   6.120757
    20  C    3.752622   2.416106   2.688876   4.450211   6.675660
    21  H    2.460549   2.599485   3.779804   2.831116   5.692397
    22  H    3.625238   3.254905   4.325536   3.714281   6.202299
    23  H    3.721406   3.137307   4.025091   4.369808   7.173364
    24  H    3.955980   2.552276   2.411963   4.622982   6.473770
    25  H    4.297247   2.937338   3.016701   5.201347   7.578876
    26  H    4.444180   3.272092   3.704901   4.896551   7.030852
                    6          7          8          9         10
     6  H    0.000000
     7  H    1.772500   0.000000
     8  H    1.775286   1.777590   0.000000
     9  N    2.109892   2.095591   2.090285   0.000000
    10  H    2.475260   2.360455   2.944090   1.015338   0.000000
    11  H    2.366880   2.944675   2.456603   1.015330   1.631593
    12  Br   4.277290   3.972611   2.891660   2.904093   3.775079
    13  C    4.186875   2.914739   3.336881   2.615950   2.840344
    14  H    4.372508   3.025616   3.929908   2.872055   2.702780
    15  H    5.207483   3.900820   4.159061   3.616322   3.877612
    16  H    3.713488   2.256067   2.681721   2.662125   3.061766
    17  Br   5.189616   5.401998   4.951912   3.343695   3.489175
    18  N    6.480651   5.543098   6.053151   4.498307   4.216172
    19  C    7.077081   6.039479   6.292432   5.092528   5.072318
    20  C    7.447069   6.432509   7.209476   5.592024   5.115556
    21  H    6.659625   5.766370   5.721521   4.659850   4.833530
    22  H    7.213539   5.956311   6.333551   5.384278   5.391140
    23  H    8.109768   7.122564   7.335918   6.083737   6.033389
    24  H    7.131324   6.190331   7.149302   5.420784   4.774366
    25  H    8.325973   7.418941   8.091427   6.398952   5.930283
    26  H    7.866624   6.649464   7.513255   6.106557   5.684171
                   11         12         13         14         15
    11  H    0.000000
    12  Br   2.923330   0.000000
    13  C    3.424995   2.871950   0.000000
    14  H    3.760094   3.865683   1.089593   0.000000
    15  H    4.325544   3.085537   1.087169   1.771898   0.000000
    16  H    3.538582   2.939835   1.086908   1.772562   1.751357
    17  Br   2.831734   3.492610   4.271477   4.579331   4.695354
    18  N    4.955500   4.775505   3.064713   2.741009   2.922804
    19  C    5.529927   4.516994   3.200486   3.271603   2.586277
    20  C    6.106194   6.191464   4.166707   3.550908   4.028381
    21  H    4.979914   3.609004   2.974785   3.377117   2.372764
    22  H    5.969662   4.778775   3.082626   3.132617   2.255062
    23  H    6.439993   5.377879   4.293816   4.330495   3.642262
    24  H    5.955399   6.527852   4.355768   3.544645   4.467209
    25  H    6.796759   6.836694   5.102590   4.577474   4.897170
    26  H    6.734485   6.550968   4.292004   3.664179   3.980880
                   16         17         18         19         20
    16  H    0.000000
    17  Br   4.972036   0.000000
    18  N    4.139737   4.010503   0.000000
    19  C    4.207235   4.474592   1.447911   0.000000
    20  C    5.172989   5.194824   1.447973   2.438290   0.000000
    21  H    3.920130   3.861519   2.087769   1.086349   3.362548
    22  H    3.949047   5.343588   2.102585   1.092565   2.783352
    23  H    5.295143   4.998996   2.087922   1.094465   2.634836
    24  H    5.290458   5.313323   2.085853   3.351800   1.086419
    25  H    6.145797   5.461245   2.112833   2.849017   1.095134
    26  H    5.208513   6.057198   2.075535   2.578223   1.090651
                   21         22         23         24         25
    21  H    0.000000
    22  H    1.778275   0.000000
    23  H    1.772640   1.768697   0.000000
    24  H    4.162171   3.658853   3.679768   0.000000
    25  H    3.748629   3.372292   2.621400   1.770720   0.000000
    26  H    3.623059   2.489092   2.757053   1.776374   1.773699
                   26
    26  H    0.000000
 Stoichiometry    C7H14Br2N2O
 Framework group  C1[X(C7H14Br2N2O)]
 Deg. of freedom    72
 Full point group                 C1      NOp   1
 Largest Abelian subgroup         C1      NOp   1
 Largest concise Abelian subgroup C1      NOp   1
                         Standard orientation:                         
 ---------------------------------------------------------------------
 Center     Atomic      Atomic             Coordinates (Angstroms)
 Number     Number       Type             X           Y           Z
 ---------------------------------------------------------------------
      1          6           0       -0.519280    0.309070   -0.010790
      2          6           0       -1.933390    0.150691    0.372770
      3          8           0       -2.478959    0.883302    1.201060
      4          6           0        0.459369   -0.645761    0.193200
      5          6           0        2.391769   -1.118073    2.328240
      6          1           0        2.878099   -0.637953    3.177400
      7          1           0        1.947988   -2.054172    2.656850
      8          1           0        3.132819   -1.315773    1.556500
      9          7           0        1.348700   -0.249172    1.776890
     10          1           0        0.571510   -0.150941    2.422830
     11          1           0        1.707321    0.684428    1.601740
     12         35           0        2.063919   -0.556722   -1.020900
     13          6           0        0.099088   -2.092141    0.403890
     14          1           0       -0.678582   -2.188120    1.161010
     15          1           0       -0.256833   -2.528930   -0.525880
     16          1           0        0.970697   -2.661441    0.716240
     17         35           0        0.026342    2.142729   -0.149370
     18          7           0       -2.634791   -0.856798   -0.222450
     19          6           0       -2.345681   -1.388188   -1.537930
     20          6           0       -3.960171   -1.160867    0.275080
     21          1           0       -1.408581   -0.981539   -1.907570
     22          1           0       -2.283492   -2.478708   -1.513520
     23          1           0       -3.146691   -1.111578   -2.230550
     24          1           0       -4.005401   -0.978627    1.345150
     25          1           0       -4.725061   -0.548946   -0.214630
     26          1           0       -4.178842   -2.210957    0.077560
 ---------------------------------------------------------------------
 Rotational constants (GHZ):           0.5964665           0.3820761           0.3174826
 Standard basis: def2TZVP (5D, 7F)
 There are   554 symmetry adapted cartesian basis functions of A   symmetry.
 There are   490 symmetry adapted basis functions of A   symmetry.
   490 basis functions,   850 primitive gaussians,   554 cartesian basis functions
    74 alpha electrons       74 beta electrons
       nuclear repulsion energy      1536.6894145458 Hartrees.
 NAtoms=   26 NActive=   26 NUniq=   26 SFac= 1.00D+00 NAtFMM=   60 NAOKFM=F Big=F
 Integral buffers will be    131072 words long.
 Raffenetti 2 integral format.
 Two-electron integral symmetry is turned on.
 Nuclear repulsion after empirical dispersion term =     1536.6677366256 Hartrees.
 Force inversion solution in PCM.
 ------------------------------------------------------------------------------
 Polarizable Continuum Model (PCM)
 =================================
 Model                : PCM.
 Atomic radii         : UFF (Universal Force Field).
 Polarization charges : Total charges.
 Charge compensation  : None.
 Solution method      : Matrix inversion.
 Cavity type          : Scaled VdW (van der Waals Surface) (Alpha=1.100).
 Cavity algorithm     : GePol (No added spheres)
                        Default sphere list used, NSphG=   26.
                        Lebedev-Laikov grids with approx.  5.0 points / Ang**2.
                        Smoothing algorithm: York/Karplus (Gamma=1.0000).
                        Polarization charges: spherical gaussians, with
                                              point-specific exponents (IZeta= 3).
                        Self-potential: point-specific (ISelfS= 7).
                        Self-field    : sphere-specific E.n sum rule (ISelfD= 2).
 1st derivatives      : Analytical E(r).r(x)/FMM algorithm (CHGder, D1EAlg=3).
                        Cavity 1st derivative terms included.
 2nd derivatives      : Analytical E(r).r(xy)/FMM algorithm (CHGder, D2EAlg=3).
                        Cavity 2nd derivative terms included.
 Solvent              : Water, Eps=  78.355300 Eps(inf)=   1.777849
 ------------------------------------------------------------------------------
 One-electron integrals computed using PRISM.
   1 Symmetry operations used in ECPInt.
 ECPInt:  NShTT=   19701 NPrTT=   66097 LenC2=   18465 LenP2D=   44921.
 LDataN:  DoStor=T MaxTD1= 6 Len=  172
 NBasis=   490 RedAO= T EigKep=  6.09D-05  NBF=   490
 NBsUse=   490 1.00D-06 EigRej= -1.00D+00 NBFU=   490
 ExpMin= 9.52D-02 ExpMax= 5.65D+05 ExpMxC= 5.46D+03 IAcc=3 IRadAn=         5 AccDes= 0.00D+00
 Harris functional with IExCor= 4639 and IRadAn=       5 diagonalized for initial guess.
 HarFok:  IExCor= 4639 AccDes= 0.00D+00 IRadAn=         5 IDoV= 1 UseB2=F ITyADJ=14
 ICtDFT=  3500011 ScaDFX=  1.000000  1.000000  1.000000  1.000000
 FoFCou: FMM=F IPFlag=           0 FMFlag=      100000 FMFlg1=           0
         NFxFlg=           0 DoJE=T BraDBF=F KetDBF=T FulRan=T
         wScrn=  0.000000 ICntrl=       500 IOpCl=  0 I1Cent=   200000004 NGrid=           0
         NMat0=    1 NMatS0=      1 NMatT0=    0 NMatD0=    1 NMtDS0=    0 NMtDT0=    0
 Petite list used in FoFCou.
 Requested convergence on RMS density matrix=1.00D-08 within 128 cycles.
 Requested convergence on MAX density matrix=1.00D-06.
 Requested convergence on             energy=1.00D-06.
 No special actions if energy rises.
 Inv3:  Mode=1 IEnd=    12681408.
 Iteration    1 A*A^-1 deviation from unit magnitude is 3.33D-15 for   2038.
 Iteration    1 A*A^-1 deviation from orthogonality  is 1.42D-15 for   2050   1913.
 Iteration    1 A^-1*A deviation from unit magnitude is 3.55D-15 for   2018.
 Iteration    1 A^-1*A deviation from orthogonality  is 1.30D-15 for   2055   2054.
 Error on total polarization charges =  0.01611
 SCF Done:  E(RwB97XD) =  -5608.31937580     A.U. after   15 cycles
            NFock= 15  Conv=0.86D-08     -V/T= 2.0017
 DoSCS=F DFT=T ScalE2(SS,OS)=  1.000000  1.000000
 Range of M.O.s used for correlation:     1   490
 NBasis=   490 NAE=    74 NBE=    74 NFC=     0 NFV=     0
 NROrb=    490 NOA=    74 NOB=    74 NVA=   416 NVB=   416

 **** Warning!!: The largest alpha MO coefficient is  0.23886473D+02

   1 Symmetry operations used in ECPInt.
 ECPInt:  NShTT=   19701 NPrTT=   66097 LenC2=   18465 LenP2D=   44921.
 LDataN:  DoStor=T MaxTD1= 7 Len=  274
 Symmetrizing basis deriv contribution to polar:
 IMax=3 JMax=2 DiffMx= 0.00D+00
 G2DrvN: will do    27 centers at a time, making    1 passes.
 Calling FoFCou, ICntrl=  3107 FMM=F I1Cent=   0 AccDes= 0.00D+00.
 NEqPCM:  Using equilibrium solvation (IEInf=0, Eps=  78.3553, EpsInf=   1.7778)
 G2PCM: DoFxE=T DoFxN=T DoGrad=T DoDP/DQ/DG/TGxP=FFFF NFrqRd=   0 IEInf=0 SqF1=F DoCFld=F IF1Alg=4.
 End of G2Drv F.D. properties file   721 does not exist.
 End of G2Drv F.D. properties file   722 does not exist.
 End of G2Drv F.D. properties file   788 does not exist.
          IDoAtm=11111111111111111111111111
 NEqPCM:  Using equilibrium solvation (IEInf=0, Eps=  78.3553, EpsInf=   1.7778)
          Differentiating once with respect to nuclear coordinates.
 CalDSu exits because no D1Ps are significant.
          There are    81 degrees of freedom in the 1st order CPHF.  IDoFFX=6 NUNeed=     0.
     75 vectors produced by pass  0 Test12= 3.80D-14 1.23D-09 XBig12= 1.12D-01 1.31D-01.
 AX will form    75 AO Fock derivatives at one time.
     75 vectors produced by pass  1 Test12= 3.80D-14 1.23D-09 XBig12= 2.96D-02 4.71D-02.
     75 vectors produced by pass  2 Test12= 3.80D-14 1.23D-09 XBig12= 7.87D-04 3.97D-03.
     75 vectors produced by pass  3 Test12= 3.80D-14 1.23D-09 XBig12= 1.28D-05 4.66D-04.
     75 vectors produced by pass  4 Test12= 3.80D-14 1.23D-09 XBig12= 1.49D-07 4.40D-05.
     75 vectors produced by pass  5 Test12= 3.80D-14 1.23D-09 XBig12= 1.30D-09 3.29D-06.
     75 vectors produced by pass  6 Test12= 3.80D-14 1.23D-09 XBig12= 1.01D-11 2.72D-07.
     31 vectors produced by pass  7 Test12= 3.80D-14 1.23D-09 XBig12= 6.72D-14 2.42D-08.
      5 vectors produced by pass  8 Test12= 3.80D-14 1.23D-09 XBig12= 1.06D-15 2.54D-09.
      4 vectors produced by pass  9 Test12= 3.80D-14 1.23D-09 XBig12= 1.39D-15 3.36D-09.
      2 vectors produced by pass 10 Test12= 3.80D-14 1.23D-09 XBig12= 2.97D-16 1.62D-09.
 InvSVY:  IOpt=1 It=  1 EMax= 6.11D-16
 Solved reduced A of dimension   567 with    81 vectors.
 End of Minotr F.D. properties file   721 does not exist.
 End of Minotr F.D. properties file   722 does not exist.
 End of Minotr F.D. properties file   788 does not exist.

 **********************************************************************

            Population analysis using the SCF density.

 **********************************************************************

 Orbital symmetries:
       Occupied  (A) (A) (A) (A) (A) (A) (A) (A) (A) (A) (A) (A)
                 (A) (A) (A) (A) (A) (A) (A) (A) (A) (A) (A) (A)
                 (A) (A) (A) (A) (A) (A) (A) (A) (A) (A) (A) (A)
                 (A) (A) (A) (A) (A) (A) (A) (A) (A) (A) (A) (A)
                 (A) (A) (A) (A) (A) (A) (A) (A) (A) (A) (A) (A)
                 (A) (A) (A) (A) (A) (A) (A) (A) (A) (A) (A) (A)
                 (A) (A)
       Virtual   (A) (A) (A) (A) (A) (A) (A) (A) (A) (A) (A) (A)
                 (A) (A) (A) (A) (A) (A) (A) (A) (A) (A) (A) (A)
                 (A) (A) (A) (A) (A) (A) (A) (A) (A) (A) (A) (A)
                 (A) (A) (A) (A) (A) (A) (A) (A) (A) (A) (A) (A)
                 (A) (A) (A) (A) (A) (A) (A) (A) (A) (A) (A) (A)
                 (A) (A) (A) (A) (A) (A) (A) (A) (A) (A) (A) (A)
                 (A) (A) (A) (A) (A) (A) (A) (A) (A) (A) (A) (A)
                 (A) (A) (A) (A) (A) (A) (A) (A) (A) (A) (A) (A)
                 (A) (A) (A) (A) (A) (A) (A) (A) (A) (A) (A) (A)
                 (A) (A) (A) (A) (A) (A) (A) (A) (A) (A) (A) (A)
                 (A) (A) (A) (A) (A) (A) (A) (A) (A) (A) (A) (A)
                 (A) (A) (A) (A) (A) (A) (A) (A) (A) (A) (A) (A)
                 (A) (A) (A) (A) (A) (A) (A) (A) (A) (A) (A) (A)
                 (A) (A) (A) (A) (A) (A) (A) (A) (A) (A) (A) (A)
                 (A) (A) (A) (A) (A) (A) (A) (A) (A) (A) (A) (A)
                 (A) (A) (A) (A) (A) (A) (A) (A) (A) (A) (A) (A)
                 (A) (A) (A) (A) (A) (A) (A) (A) (A) (A) (A) (A)
                 (A) (A) (A) (A) (A) (A) (A) (A) (A) (A) (A) (A)
                 (A) (A) (A) (A) (A) (A) (A) (A) (A) (A) (A) (A)
                 (A) (A) (A) (A) (A) (A) (A) (A) (A) (A) (A) (A)
                 (A) (A) (A) (A) (A) (A) (A) (A) (A) (A) (A) (A)
                 (A) (A) (A) (A) (A) (A) (A) (A) (A) (A) (A) (A)
                 (A) (A) (A) (A) (A) (A) (A) (A) (A) (A) (A) (A)
                 (A) (A) (A) (A) (A) (A) (A) (A) (A) (A) (A) (A)
                 (A) (A) (A) (A) (A) (A) (A) (A) (A) (A) (A) (A)
                 (A) (A) (A) (A) (A) (A) (A) (A) (A) (A) (A) (A)
                 (A) (A) (A) (A) (A) (A) (A) (A) (A) (A) (A) (A)
                 (A) (A) (A) (A) (A) (A) (A) (A) (A) (A) (A) (A)
                 (A) (A) (A) (A) (A) (A) (A) (A) (A) (A) (A) (A)
                 (A) (A) (A) (A) (A) (A) (A) (A) (A) (A) (A) (A)
                 (A) (A) (A) (A) (A) (A) (A) (A) (A) (A) (A) (A)
                 (A) (A) (A) (A) (A) (A) (A) (A) (A) (A) (A) (A)
                 (A) (A) (A) (A) (A) (A) (A) (A) (A) (A) (A) (A)
                 (A) (A) (A) (A) (A) (A) (A) (A) (A) (A) (A) (A)
                 (A) (A) (A) (A) (A) (A) (A) (A)
 The electronic state is 1-A.
 Alpha  occ. eigenvalues -- -483.12068-483.12068 -62.66924 -62.66898 -56.46018
 Alpha  occ. eigenvalues --  -56.46000 -56.45697 -56.45684 -56.45670 -56.45660
 Alpha  occ. eigenvalues --  -19.20593 -14.50155 -14.46008 -10.40522 -10.38528
 Alpha  occ. eigenvalues --  -10.32390 -10.30884 -10.30459 -10.30098 -10.29398
 Alpha  occ. eigenvalues --   -8.81027  -8.81009  -6.63112  -6.63104  -6.62094
 Alpha  occ. eigenvalues --   -6.62056  -6.62050  -6.62026  -2.73509  -2.73493
 Alpha  occ. eigenvalues --   -2.73221  -2.73204  -2.73186  -2.73179  -2.72368
 Alpha  occ. eigenvalues --   -2.72368  -2.72325  -2.72325  -1.13543  -1.05563
 Alpha  occ. eigenvalues --   -1.03299  -0.94628  -0.88504  -0.84650  -0.81871
 Alpha  occ. eigenvalues --   -0.80694  -0.80123  -0.76152  -0.67962  -0.64286
 Alpha  occ. eigenvalues --   -0.61937  -0.60261  -0.56919  -0.56890  -0.55894
 Alpha  occ. eigenvalues --   -0.55128  -0.53691  -0.50808  -0.50261  -0.48912
 Alpha  occ. eigenvalues --   -0.48531  -0.48366  -0.47461  -0.46118  -0.45463
 Alpha  occ. eigenvalues --   -0.44138  -0.43537  -0.39613  -0.38165  -0.37285
 Alpha  occ. eigenvalues --   -0.35580  -0.34263  -0.32047  -0.26591
 Alpha virt. eigenvalues --    0.02429   0.07089   0.09573   0.10748   0.12139
 Alpha virt. eigenvalues --    0.12806   0.13903   0.15094   0.15994   0.16721
 Alpha virt. eigenvalues --    0.17402   0.17898   0.18868   0.19008   0.19753
 Alpha virt. eigenvalues --    0.20096   0.20586   0.21326   0.21987   0.22704
 Alpha virt. eigenvalues --    0.22788   0.24910   0.25376   0.26238   0.26856
 Alpha virt. eigenvalues --    0.27261   0.28085   0.29375   0.30417   0.30818
 Alpha virt. eigenvalues --    0.31260   0.32563   0.32835   0.33326   0.33873
 Alpha virt. eigenvalues --    0.34564   0.36102   0.36606   0.37669   0.38139
 Alpha virt. eigenvalues --    0.38574   0.39635   0.40729   0.40847   0.41211
 Alpha virt. eigenvalues --    0.41767   0.42717   0.43948   0.44715   0.45819
 Alpha virt. eigenvalues --    0.46467   0.46981   0.47774   0.48357   0.49858
 Alpha virt. eigenvalues --    0.50595   0.50812   0.51225   0.51857   0.52551
 Alpha virt. eigenvalues --    0.52878   0.53275   0.53982   0.54296   0.55144
 Alpha virt. eigenvalues --    0.55266   0.55940   0.57007   0.58115   0.58355
 Alpha virt. eigenvalues --    0.59458   0.60140   0.60533   0.61304   0.62018
 Alpha virt. eigenvalues --    0.62931   0.63127   0.63795   0.63960   0.66750
 Alpha virt. eigenvalues --    0.67338   0.68069   0.69649   0.69836   0.70434
 Alpha virt. eigenvalues --    0.73063   0.74055   0.75088   0.76887   0.77270
 Alpha virt. eigenvalues --    0.78734   0.80402   0.80950   0.83782   0.86266
 Alpha virt. eigenvalues --    0.87095   0.88272   0.90767   0.91510   0.93637
 Alpha virt. eigenvalues --    0.94505   0.95326   0.96471   0.97762   0.98698
 Alpha virt. eigenvalues --    1.02371   1.03405   1.05507   1.05733   1.05948
 Alpha virt. eigenvalues --    1.07883   1.08864   1.09598   1.10512   1.11802
 Alpha virt. eigenvalues --    1.14156   1.14583   1.14910   1.15565   1.16933
 Alpha virt. eigenvalues --    1.18379   1.19847   1.21431   1.21960   1.22681
 Alpha virt. eigenvalues --    1.23981   1.25370   1.26641   1.28087   1.31833
 Alpha virt. eigenvalues --    1.32893   1.36571   1.38316   1.40701   1.42379
 Alpha virt. eigenvalues --    1.43149   1.46245   1.46319   1.46987   1.47779
 Alpha virt. eigenvalues --    1.49552   1.50704   1.51456   1.51835   1.52321
 Alpha virt. eigenvalues --    1.53844   1.55772   1.56033   1.56824   1.57957
 Alpha virt. eigenvalues --    1.58941   1.59933   1.60153   1.61061   1.61624
 Alpha virt. eigenvalues --    1.62539   1.62955   1.63460   1.63875   1.64097
 Alpha virt. eigenvalues --    1.64818   1.65473   1.65578   1.66394   1.67371
 Alpha virt. eigenvalues --    1.68180   1.68587   1.68695   1.69796   1.70184
 Alpha virt. eigenvalues --    1.71568   1.71733   1.73165   1.73720   1.74500
 Alpha virt. eigenvalues --    1.75610   1.76400   1.77837   1.77940   1.79379
 Alpha virt. eigenvalues --    1.81082   1.82125   1.83232   1.83921   1.84648
 Alpha virt. eigenvalues --    1.85181   1.87720   1.88401   1.89420   1.91332
 Alpha virt. eigenvalues --    1.92396   1.92981   1.94598   1.95085   1.96305
 Alpha virt. eigenvalues --    1.97633   1.98849   2.00435   2.02206   2.05791
 Alpha virt. eigenvalues --    2.06044   2.06546   2.07276   2.08096   2.09684
 Alpha virt. eigenvalues --    2.10378   2.10917   2.12226   2.14522   2.17002
 Alpha virt. eigenvalues --    2.18843   2.19673   2.21552   2.24032   2.26181
 Alpha virt. eigenvalues --    2.27113   2.27663   2.30072   2.34028   2.35146
 Alpha virt. eigenvalues --    2.36397   2.37904   2.39327   2.39742   2.40865
 Alpha virt. eigenvalues --    2.42118   2.43909   2.45049   2.46557   2.47755
 Alpha virt. eigenvalues --    2.49570   2.50053   2.51815   2.52171   2.53990
 Alpha virt. eigenvalues --    2.54468   2.55689   2.57646   2.58685   2.61382
 Alpha virt. eigenvalues --    2.62165   2.64044   2.65455   2.66136   2.67599
 Alpha virt. eigenvalues --    2.67987   2.68561   2.70645   2.72066   2.72806
 Alpha virt. eigenvalues --    2.75502   2.75529   2.76417   2.78700   2.80123
 Alpha virt. eigenvalues --    2.81842   2.84053   2.85490   2.86124   2.87905
 Alpha virt. eigenvalues --    2.90109   2.92550   2.92932   2.94594   2.95398
 Alpha virt. eigenvalues --    2.98201   3.01819   3.02182   3.03954   3.07246
 Alpha virt. eigenvalues --    3.08558   3.09668   3.11997   3.13352   3.14671
 Alpha virt. eigenvalues --    3.15436   3.17130   3.19023   3.20467   3.21866
 Alpha virt. eigenvalues --    3.22208   3.24089   3.25589   3.26315   3.28073
 Alpha virt. eigenvalues --    3.29034   3.30358   3.31526   3.33419   3.34576
 Alpha virt. eigenvalues --    3.36253   3.37201   3.38024   3.39427   3.40294
 Alpha virt. eigenvalues --    3.41278   3.42842   3.44187   3.44565   3.47005
 Alpha virt. eigenvalues --    3.47939   3.49504   3.50765   3.51815   3.52094
 Alpha virt. eigenvalues --    3.53636   3.57821   3.59057   3.59139   3.61714
 Alpha virt. eigenvalues --    3.62816   3.63495   3.65287   3.66403   3.67318
 Alpha virt. eigenvalues --    3.68965   3.71574   3.73645   3.75454   3.76495
 Alpha virt. eigenvalues --    3.81617   3.83550   3.85027   3.87759   3.88924
 Alpha virt. eigenvalues --    3.90598   3.92960   3.95954   3.98493   4.00411
 Alpha virt. eigenvalues --    4.04110   4.07820   4.08965   4.12961   4.14354
 Alpha virt. eigenvalues --    4.17391   4.17944   4.18841   4.19555   4.21009
 Alpha virt. eigenvalues --    4.23769   4.24312   4.27672   4.29504   4.30959
 Alpha virt. eigenvalues --    4.32359   4.33451   4.34987   4.37081   4.39652
 Alpha virt. eigenvalues --    4.40968   4.43508   4.44802   4.46436   4.47034
 Alpha virt. eigenvalues --    4.49655   4.50497   4.53621   4.55270   4.56139
 Alpha virt. eigenvalues --    4.63162   4.64341   4.68650   4.75678   4.79395
 Alpha virt. eigenvalues --    4.82938   4.87492   4.94142   4.95565   5.00749
 Alpha virt. eigenvalues --    5.02926   5.05373   5.08643   5.09947   5.12589
 Alpha virt. eigenvalues --    5.13292   5.14232   5.19472   5.23338   5.25775
 Alpha virt. eigenvalues --    5.28653   5.32885   5.34766   5.38594   5.40231
 Alpha virt. eigenvalues --    5.42194   5.45839   5.56729   5.58351   5.60356
 Alpha virt. eigenvalues --    5.71035   5.76736   5.80551   5.87093   5.89002
 Alpha virt. eigenvalues --    6.07852   6.24970   6.42713   6.52660   6.69507
 Alpha virt. eigenvalues --    6.81054   6.94418   7.17881   7.20425   7.75107
 Alpha virt. eigenvalues --    7.82030  22.44545  22.47308  22.53063  22.57263
 Alpha virt. eigenvalues --   22.60971  22.87483  23.50551  32.23828  32.87444
 Alpha virt. eigenvalues --   44.10575
          Condensed to atoms (all electrons):
               1          2          3          4          5          6
     1  C    5.865009   0.203532  -0.113300   0.387083   0.009709  -0.001034
     2  C    0.203532   4.691232   0.681718  -0.039727   0.000869  -0.000048
     3  O   -0.113300   0.681718   8.071546  -0.001222  -0.000132   0.000007
     4  C    0.387083  -0.039727  -0.001222   5.288545  -0.008490   0.002009
     5  C    0.009709   0.000869  -0.000132  -0.008490   4.894133   0.399900
     6  H   -0.001034  -0.000048   0.000007   0.002009   0.399900   0.495665
     7  H   -0.000010   0.000016   0.000002  -0.011508   0.420612  -0.017737
     8  H    0.001772   0.000049  -0.000001   0.004272   0.415399  -0.016966
     9  N   -0.104046  -0.005533   0.001497   0.057794   0.217514  -0.019578
    10  H    0.004760   0.001142   0.002724  -0.008826  -0.019910  -0.003110
    11  H   -0.004792   0.000771  -0.000028  -0.024914  -0.017901  -0.005562
    12  Br  -0.106019   0.007055  -0.000489   0.343191  -0.014316  -0.000107
    13  C   -0.070433  -0.003946  -0.000887   0.159159   0.006355   0.000539
    14  H   -0.006875   0.000979   0.000399  -0.033301  -0.003023   0.000024
    15  H   -0.015667  -0.002827  -0.000083  -0.022094  -0.000276  -0.000005
    16  H    0.016064   0.000768  -0.000049  -0.054482   0.002200   0.000565
    17  Br   0.259638  -0.041356  -0.007922  -0.076745   0.000964   0.000173
    18  N   -0.128931   0.390528  -0.140908  -0.032041  -0.000046   0.000002
    19  C   -0.028493  -0.054213   0.000661   0.018766  -0.000001  -0.000000
    20  C    0.004964  -0.072482  -0.002048   0.000503   0.000002   0.000000
    21  H   -0.003632  -0.011133   0.000504   0.001297   0.000001   0.000000
    22  H   -0.001426   0.004641  -0.000359   0.002523  -0.000003  -0.000000
    23  H    0.000849  -0.001935   0.000613  -0.001504  -0.000001   0.000000
    24  H    0.002571  -0.011060   0.010563   0.001051  -0.000002   0.000000
    25  H   -0.001920  -0.008058   0.001820  -0.000607   0.000000   0.000000
    26  H    0.001423   0.012889   0.002232   0.000493   0.000001  -0.000000
               7          8          9         10         11         12
     1  C   -0.000010   0.001772  -0.104046   0.004760  -0.004792  -0.106019
     2  C    0.000016   0.000049  -0.005533   0.001142   0.000771   0.007055
     3  O    0.000002  -0.000001   0.001497   0.002724  -0.000028  -0.000489
     4  C   -0.011508   0.004272   0.057794  -0.008826  -0.024914   0.343191
     5  C    0.420612   0.415399   0.217514  -0.019910  -0.017901  -0.014316
     6  H   -0.017737  -0.016966  -0.019578  -0.003110  -0.005562  -0.000107
     7  H    0.495292  -0.024850  -0.030559  -0.006159   0.004961   0.000988
     8  H   -0.024850   0.499563  -0.040193   0.005495  -0.004489   0.009967
     9  N   -0.030559  -0.040193   6.560877   0.353314   0.363441  -0.081187
    10  H   -0.006159   0.005495   0.353314   0.405495  -0.020497   0.004478
    11  H    0.004961  -0.004489   0.363441  -0.020497   0.406527  -0.000703
    12  Br   0.000988   0.009967  -0.081187   0.004478  -0.000703  35.096335
    13  C    0.006127  -0.008124   0.008190  -0.009889   0.006976  -0.069797
    14  H   -0.000786   0.000220   0.002127   0.001182  -0.000252   0.006138
    15  H    0.000188  -0.000009   0.002718  -0.000013  -0.000162   0.002605
    16  H   -0.004294  -0.000279  -0.008264  -0.000650   0.000106  -0.004063
    17  Br  -0.000082  -0.000012  -0.002801  -0.000087   0.009959  -0.017423
    18  N   -0.000020  -0.000000   0.001100  -0.000179  -0.000033  -0.000821
    19  C    0.000003   0.000002  -0.000625   0.000153  -0.000026  -0.000929
    20  C   -0.000000  -0.000000   0.000032  -0.000061   0.000007   0.000025
    21  H   -0.000002   0.000000   0.000190  -0.000046   0.000004   0.004170
    22  H    0.000001  -0.000000  -0.000041   0.000018  -0.000001   0.000165
    23  H   -0.000000  -0.000000   0.000024  -0.000005   0.000000  -0.000125
    24  H    0.000000  -0.000000  -0.000008   0.000045  -0.000001   0.000004
    25  H   -0.000000  -0.000000   0.000005  -0.000006   0.000000  -0.000003
    26  H    0.000000   0.000000  -0.000015   0.000003  -0.000000   0.000012
              13         14         15         16         17         18
     1  C   -0.070433  -0.006875  -0.015667   0.016064   0.259638  -0.128931
     2  C   -0.003946   0.000979  -0.002827   0.000768  -0.041356   0.390528
     3  O   -0.000887   0.000399  -0.000083  -0.000049  -0.007922  -0.140908
     4  C    0.159159  -0.033301  -0.022094  -0.054482  -0.076745  -0.032041
     5  C    0.006355  -0.003023  -0.000276   0.002200   0.000964  -0.000046
     6  H    0.000539   0.000024  -0.000005   0.000565   0.000173   0.000002
     7  H    0.006127  -0.000786   0.000188  -0.004294  -0.000082  -0.000020
     8  H   -0.008124   0.000220  -0.000009  -0.000279  -0.000012  -0.000000
     9  N    0.008190   0.002127   0.002718  -0.008264  -0.002801   0.001100
    10  H   -0.009889   0.001182  -0.000013  -0.000650  -0.000087  -0.000179
    11  H    0.006976  -0.000252  -0.000162   0.000106   0.009959  -0.000033
    12  Br  -0.069797   0.006138   0.002605  -0.004063  -0.017423  -0.000821
    13  C    5.117187   0.405789   0.410111   0.428597   0.009691   0.035860
    14  H    0.405789   0.493127  -0.011487  -0.018397   0.000129  -0.002389
    15  H    0.410111  -0.011487   0.503391  -0.021006   0.000031  -0.008170
    16  H    0.428597  -0.018397  -0.021006   0.496142  -0.000325   0.001835
    17  Br   0.009691   0.000129   0.000031  -0.000325  35.037389   0.002154
    18  N    0.035860  -0.002389  -0.008170   0.001835   0.002154   6.708635
    19  C   -0.020347  -0.002208   0.005683  -0.000551   0.001633   0.246249
    20  C   -0.000912   0.000372  -0.000023  -0.000033  -0.001044   0.279075
    21  H   -0.004672   0.000547  -0.002680   0.000083   0.000319  -0.030850
    22  H   -0.008664  -0.000124   0.001834  -0.000237  -0.000023  -0.051809
    23  H    0.002556  -0.000052  -0.000027   0.000035  -0.000105  -0.033662
    24  H   -0.000701   0.000045   0.000107  -0.000031  -0.000039  -0.035697
    25  H    0.000443   0.000020  -0.000080   0.000008   0.000100  -0.035857
    26  H   -0.001040  -0.000026   0.000327  -0.000043   0.000008  -0.046019
              19         20         21         22         23         24
     1  C   -0.028493   0.004964  -0.003632  -0.001426   0.000849   0.002571
     2  C   -0.054213  -0.072482  -0.011133   0.004641  -0.001935  -0.011060
     3  O    0.000661  -0.002048   0.000504  -0.000359   0.000613   0.010563
     4  C    0.018766   0.000503   0.001297   0.002523  -0.001504   0.001051
     5  C   -0.000001   0.000002   0.000001  -0.000003  -0.000001  -0.000002
     6  H   -0.000000   0.000000   0.000000  -0.000000   0.000000   0.000000
     7  H    0.000003  -0.000000  -0.000002   0.000001  -0.000000   0.000000
     8  H    0.000002  -0.000000   0.000000  -0.000000  -0.000000  -0.000000
     9  N   -0.000625   0.000032   0.000190  -0.000041   0.000024  -0.000008
    10  H    0.000153  -0.000061  -0.000046   0.000018  -0.000005   0.000045
    11  H   -0.000026   0.000007   0.000004  -0.000001   0.000000  -0.000001
    12  Br  -0.000929   0.000025   0.004170   0.000165  -0.000125   0.000004
    13  C   -0.020347  -0.000912  -0.004672  -0.008664   0.002556  -0.000701
    14  H   -0.002208   0.000372   0.000547  -0.000124  -0.000052   0.000045
    15  H    0.005683  -0.000023  -0.002680   0.001834  -0.000027   0.000107
    16  H   -0.000551  -0.000033   0.000083  -0.000237   0.000035  -0.000031
    17  Br   0.001633  -0.001044   0.000319  -0.000023  -0.000105  -0.000039
    18  N    0.246249   0.279075  -0.030850  -0.051809  -0.033662  -0.035697
    19  C    4.979119  -0.052323   0.414084   0.438700   0.392229   0.008574
    20  C   -0.052323   4.895686   0.007144  -0.010321   0.002416   0.405155
    21  H    0.414084   0.007144   0.490976  -0.027397  -0.010546  -0.000376
    22  H    0.438700  -0.010321  -0.027397   0.526391  -0.031475   0.000627
    23  H    0.392229   0.002416  -0.010546  -0.031475   0.538405  -0.000532
    24  H    0.008574   0.405155  -0.000376   0.000627  -0.000532   0.523322
    25  H   -0.007154   0.426778   0.000107  -0.001354   0.006419  -0.029388
    26  H   -0.003461   0.400360   0.000356   0.004013  -0.005232  -0.015601
              25         26
     1  C   -0.001920   0.001423
     2  C   -0.008058   0.012889
     3  O    0.001820   0.002232
     4  C   -0.000607   0.000493
     5  C    0.000000   0.000001
     6  H    0.000000  -0.000000
     7  H   -0.000000   0.000000
     8  H   -0.000000   0.000000
     9  N    0.000005  -0.000015
    10  H   -0.000006   0.000003
    11  H    0.000000  -0.000000
    12  Br  -0.000003   0.000012
    13  C    0.000443  -0.001040
    14  H    0.000020  -0.000026
    15  H   -0.000080   0.000327
    16  H    0.000008  -0.000043
    17  Br   0.000100   0.000008
    18  N   -0.035857  -0.046019
    19  C   -0.007154  -0.003461
    20  C    0.426778   0.400360
    21  H    0.000107   0.000356
    22  H   -0.001354   0.004013
    23  H    0.006419  -0.005232
    24  H   -0.029388  -0.015601
    25  H    0.549069  -0.034776
    26  H   -0.034776   0.547029
 Mulliken charges:
               1
     1  C   -0.170798
     2  C    0.256130
     3  O   -0.506857
     4  C    0.048775
     5  C   -0.303556
     6  H    0.165260
     7  H    0.167816
     8  H    0.158182
     9  N   -0.275974
    10  H    0.290629
    11  H    0.286609
    12  Br  -0.179152
    13  C   -0.398169
    14  H    0.167822
    15  H    0.157614
    16  H    0.166301
    17  Br  -0.174224
    18  N   -0.118008
    19  C   -0.335526
    20  C   -0.283273
    21  H    0.171551
    22  H    0.154321
    23  H    0.141655
    24  H    0.141373
    25  H    0.134433
    26  H    0.137066
 Sum of Mulliken charges =  -0.00000
 Mulliken charges with hydrogens summed into heavy atoms:
               1
     1  C   -0.170798
     2  C    0.256130
     3  O   -0.506857
     4  C    0.048775
     5  C    0.187702
     9  N    0.301264
    12  Br  -0.179152
    13  C    0.093567
    17  Br  -0.174224
    18  N   -0.118008
    19  C    0.132001
    20  C    0.129599
 APT charges:
               1
     1  C   -0.264792
     2  C   -0.343157
     3  O   -0.091038
     4  C   -0.124593
     5  C   -1.373634
     6  H    0.698141
     7  H    0.436033
     8  H    0.351685
     9  N   -0.488258
    10  H    0.471580
    11  H    0.447778
    12  Br   0.010604
    13  C   -1.278328
    14  H    0.382426
    15  H    0.369170
    16  H    0.515965
    17  Br  -0.010297
    18  N    0.167865
    19  C   -1.007495
    20  C   -1.451791
    21  H   -0.010235
    22  H    0.458841
    23  H    0.630648
    24  H    0.348210
    25  H    0.569517
    26  H    0.585154
 Sum of APT charges =  -0.00000
 APT charges with hydrogens summed into heavy atoms:
               1
     1  C   -0.264792
     2  C   -0.343157
     3  O   -0.091038
     4  C   -0.124593
     5  C    0.112225
     9  N    0.431100
    12  Br   0.010604
    13  C   -0.010767
    17  Br  -0.010297
    18  N    0.167865
    19  C    0.071759
    20  C    0.051091
 Electronic spatial extent (au):  <R**2>=           3743.4951
 Charge=             -0.0000 electrons
 Dipole moment (field-independent basis, Debye):
    X=              3.2464    Y=             -7.1262    Z=              3.5959  Tot=              8.6170
 Quadrupole moment (field-independent basis, Debye-Ang):
   XX=            -96.2378   YY=            -98.9268   ZZ=            -90.0568
   XY=             10.1044   XZ=             18.5725   YZ=             -4.8397
 Traceless Quadrupole moment (field-independent basis, Debye-Ang):
   XX=             -1.1640   YY=             -3.8530   ZZ=              5.0170
   XY=             10.1044   XZ=             18.5725   YZ=             -4.8397
 Octapole moment (field-independent basis, Debye-Ang**2):
  XXX=             61.5055  YYY=             22.8800  ZZZ=              2.4451  XYY=             23.4921
  XXY=            -17.2691  XXZ=             -9.9690  XZZ=             42.7957  YZZ=              0.6332
  YYZ=             -6.4103  XYZ=              0.9561
 Hexadecapole moment (field-independent basis, Debye-Ang**3):
 XXXX=          -2331.8652 YYYY=          -1131.5301 ZZZZ=           -719.0317 XXXY=             49.7809
 XXXZ=             42.7861 YYYX=             -6.8277 YYYZ=             -4.9402 ZZZX=             11.5164
 ZZZY=            -12.1400 XXYY=           -591.2129 XXZZ=           -503.3778 YYZZ=           -321.2451
 XXYZ=            -26.6392 YYXZ=              7.7216 ZZXY=             -2.9704
 N-N= 1.536667736626D+03 E-N=-1.645114986298D+04  KE= 5.598824541755D+03
  Exact polarizability:   0.000   0.000   0.000   0.000   0.000   0.000
 Approx polarizability: 179.455  -2.512 167.099  -3.182   4.266 160.964
   1 Symmetry operations used in ECPInt.
 ECPInt:  NShTT=   19701 NPrTT=   66097 LenC2=   18465 LenP2D=   44921.
 LDataN:  DoStor=T MaxTD1= 8 Len=  415
 D2PCM: PCM CHGder 2nd derivatives, FixD1E=F FixD2E=F DoIter=F DoCFld=F I1PDM=0
 Calling FoFJK, ICntrl=    100147 FMM=F ISym2X=0 I1Cent= 0 IOpClX= 0 NMat=1 NMatS=1 NMatT=0.
 ***** Axes restored to original set *****
 -------------------------------------------------------------------
 Center     Atomic                   Forces (Hartrees/Bohr)
 Number     Number              X              Y              Z
 -------------------------------------------------------------------
      1        6           0.000096618    0.000180342    0.000314158
      2        6          -0.000060525    0.000084706   -0.000113385
      3        8          -0.000008969    0.000072931   -0.000122897
      4        6          -0.000015778   -0.000129402   -0.000405601
      5        6           0.000029929    0.000020074    0.000017137
      6        1           0.000004877   -0.000005508   -0.000002589
      7        1          -0.000002847   -0.000000264    0.000000609
      8        1          -0.000012601    0.000001938   -0.000016508
      9        7           0.000066132    0.000036472    0.000022823
     10        1           0.000021891   -0.000079050    0.000008381
     11        1          -0.000040050    0.000015135    0.000021341
     12       35          -0.000096554   -0.000039109    0.000065541
     13        6          -0.000026262    0.000028957    0.000090894
     14        1          -0.000024303    0.000005123   -0.000023738
     15        1           0.000034314   -0.000020270   -0.000024386
     16        1          -0.000010240    0.000001294    0.000036742
     17       35          -0.000007487    0.000006899    0.000027148
     18        7           0.000111697   -0.000318121    0.000182504
     19        6          -0.000021768    0.000081416   -0.000088215
     20        6          -0.000057063    0.000067548   -0.000019442
     21        1           0.000004352   -0.000020362   -0.000008007
     22        1          -0.000006658   -0.000003197    0.000006246
     23        1           0.000018983    0.000019280   -0.000013695
     24        1          -0.000011918   -0.000027537    0.000027674
     25        1           0.000029683    0.000013338    0.000018504
     26        1          -0.000015453    0.000007368   -0.000001243
 -------------------------------------------------------------------
 Cartesian Forces:  Max     0.000405601 RMS     0.000086913
 FormGI is forming the generalized inverse of G from B-inverse, IUseBI=4.

 GradGradGradGradGradGradGradGradGradGradGradGradGradGradGradGradGradGrad
 Berny optimization.
 Internal  Forces:  Max     0.000153666 RMS     0.000035590
 Search for a saddle point.
 Step number   1 out of a maximum of   70
 All quantities printed in internal units (Hartrees-Bohrs-Radians)
 Swapping is turned off.
 Second derivative matrix not updated -- analytic derivatives used.
 ITU=  0
     Eigenvalues ---   -0.04321   0.00146   0.00149   0.00187   0.00237
     Eigenvalues ---    0.00359   0.00483   0.00621   0.01090   0.02054
     Eigenvalues ---    0.02209   0.03386   0.03848   0.04456   0.04531
     Eigenvalues ---    0.04630   0.04719   0.04807   0.05813   0.05959
     Eigenvalues ---    0.06131   0.06252   0.06306   0.06535   0.07920
     Eigenvalues ---    0.09193   0.09579   0.11940   0.12488   0.12629
     Eigenvalues ---    0.12990   0.13151   0.13661   0.14012   0.15548
     Eigenvalues ---    0.15846   0.15958   0.16727   0.17392   0.17674
     Eigenvalues ---    0.17868   0.17928   0.18334   0.20650   0.21581
     Eigenvalues ---    0.22303   0.22668   0.23916   0.29677   0.31651
     Eigenvalues ---    0.32769   0.32942   0.33435   0.33810   0.33893
     Eigenvalues ---    0.34257   0.34506   0.34811   0.35119   0.35276
     Eigenvalues ---    0.35436   0.35576   0.36027   0.36213   0.38215
     Eigenvalues ---    0.39124   0.44793   0.44875   0.45414   0.48358
     Eigenvalues ---    0.64112   0.75916
 Eigenvectors required to have negative eigenvalues:
                          R6        R7        D9        D6        D8
   1                    0.83446  -0.23660   0.20588   0.19137   0.16130
                          D5        A11       D26       D25       R2
   1                    0.14679  -0.13233   0.10140   0.09440  -0.09347
 RFO step:  Lambda0=1.157201757D-07 Lambda=-4.87659326D-05.
 Linear search not attempted -- option 19 set.
 Iteration  1 RMS(Cart)=  0.02060183 RMS(Int)=  0.00019569
 Iteration  2 RMS(Cart)=  0.00048191 RMS(Int)=  0.00003810
 Iteration  3 RMS(Cart)=  0.00000011 RMS(Int)=  0.00003810
 Variable       Old X    -DE/DX   Delta X   Delta X   Delta X     New X
                                 (Linear)    (Quad)   (Total)
    R1        2.78496  -0.00001   0.00000  -0.00304  -0.00304   2.78193
    R2        2.61238   0.00002   0.00000  -0.00029  -0.00029   2.61209
    R3        3.62474   0.00000   0.00000  -0.00141  -0.00141   3.62333
    R4        2.33014  -0.00004   0.00000  -0.00042  -0.00042   2.32972
    R5        2.57813   0.00008   0.00000   0.00265   0.00265   2.58079
    R6        3.51320   0.00008   0.00000   0.01223   0.01223   3.52543
    R7        3.80607  -0.00012   0.00000  -0.00314  -0.00314   3.80293
    R8        2.84478  -0.00000   0.00000  -0.00052  -0.00052   2.84426
    R9        2.05981  -0.00000   0.00000   0.00011   0.00011   2.05992
   R10        2.05382  -0.00000   0.00000   0.00012   0.00012   2.05394
   R11        2.05609   0.00000   0.00000   0.00007   0.00007   2.05616
   R12        2.76893  -0.00000   0.00000  -0.00059  -0.00059   2.76834
   R13        1.91871  -0.00002   0.00000  -0.00031  -0.00031   1.91840
   R14        1.91870  -0.00000   0.00000  -0.00002  -0.00002   1.91867
   R15        2.05903  -0.00000   0.00000  -0.00038  -0.00038   2.05865
   R16        2.05445   0.00002   0.00000   0.00007   0.00007   2.05453
   R17        2.05396   0.00000   0.00000   0.00003   0.00003   2.05399
   R18        2.73616   0.00007   0.00000   0.00100   0.00100   2.73716
   R19        2.73627   0.00005   0.00000   0.00035   0.00035   2.73662
   R20        2.05290  -0.00000   0.00000  -0.00004  -0.00004   2.05286
   R21        2.06465   0.00000   0.00000  -0.00020  -0.00020   2.06445
   R22        2.06824  -0.00000   0.00000   0.00029   0.00029   2.06853
   R23        2.05304   0.00002   0.00000   0.00032   0.00032   2.05335
   R24        2.06950  -0.00002   0.00000   0.00012   0.00012   2.06963
   R25        2.06103   0.00000   0.00000  -0.00021  -0.00021   2.06082
    A1        2.17323   0.00003   0.00000   0.00922   0.00910   2.18233
    A2        1.97630  -0.00004   0.00000   0.00091   0.00078   1.97708
    A3        2.05960   0.00004   0.00000   0.00012  -0.00001   2.05959
    A4        2.13593  -0.00002   0.00000   0.00015   0.00015   2.13608
    A5        2.04781   0.00001   0.00000   0.00075   0.00075   2.04855
    A6        2.09943   0.00001   0.00000  -0.00090  -0.00090   2.09854
    A7        1.89337   0.00000   0.00000  -0.00467  -0.00466   1.88871
    A8        2.03141  -0.00000   0.00000   0.00165   0.00164   2.03305
    A9        2.11163   0.00002   0.00000   0.00427   0.00425   2.11587
   A10        1.69408  -0.00001   0.00000  -0.00041  -0.00041   1.69367
   A11        1.77238  -0.00002   0.00000  -0.00324  -0.00324   1.76915
   A12        1.89389   0.00000   0.00000   0.00009   0.00008   1.89397
   A13        1.90289  -0.00000   0.00000  -0.00035  -0.00035   1.90254
   A14        1.90575   0.00001   0.00000   0.00028   0.00028   1.90603
   A15        1.92789   0.00001   0.00000   0.00072   0.00072   1.92862
   A16        1.91353   0.00001   0.00000  -0.00017  -0.00017   1.91336
   A17        1.91119   0.00000   0.00000   0.00037   0.00037   1.91156
   A18        1.90255  -0.00003   0.00000  -0.00085  -0.00085   1.90170
   A19        2.13480   0.00001   0.00000   0.00209   0.00209   2.13688
   A20        1.76849   0.00001   0.00000  -0.00071  -0.00071   1.76778
   A21        1.79073  -0.00000   0.00000  -0.00282  -0.00282   1.78791
   A22        1.94216  -0.00001   0.00000   0.00012   0.00012   1.94228
   A23        1.93772  -0.00000   0.00000   0.00045   0.00045   1.93817
   A24        1.86622   0.00001   0.00000   0.00060   0.00060   1.86682
   A25        1.93125  -0.00000   0.00000   0.00003   0.00003   1.93128
   A26        1.92269   0.00000   0.00000   0.00100   0.00100   1.92369
   A27        1.93002   0.00000   0.00000  -0.00103  -0.00103   1.92899
   A28        1.90203   0.00000   0.00000   0.00007   0.00007   1.90210
   A29        1.90342  -0.00000   0.00000   0.00057   0.00057   1.90399
   A30        1.87325  -0.00000   0.00000  -0.00065  -0.00065   1.87260
   A31        2.17093  -0.00005   0.00000  -0.00423  -0.00442   2.16650
   A32        2.06662  -0.00003   0.00000  -0.00437  -0.00457   2.06205
   A33        2.00190   0.00006   0.00000  -0.00155  -0.00176   2.00014
   A34        1.92197   0.00002   0.00000   0.00121   0.00121   1.92318
   A35        1.93626  -0.00002   0.00000  -0.00042  -0.00042   1.93584
   A36        1.91353   0.00002   0.00000   0.00066   0.00066   1.91420
   A37        1.90935  -0.00001   0.00000  -0.00040  -0.00040   1.90895
   A38        1.89799  -0.00002   0.00000  -0.00146  -0.00146   1.89653
   A39        1.88395   0.00001   0.00000   0.00036   0.00036   1.88431
   A40        1.91911   0.00003   0.00000   0.00089   0.00089   1.92001
   A41        1.94800  -0.00003   0.00000   0.00103   0.00103   1.94903
   A42        1.90020   0.00002   0.00000  -0.00094  -0.00094   1.89926
   A43        1.89403  -0.00000   0.00000  -0.00050  -0.00050   1.89352
   A44        1.90873  -0.00002   0.00000  -0.00093  -0.00093   1.90779
   A45        1.89332   0.00001   0.00000   0.00041   0.00041   1.89374
    D1        2.05029   0.00015   0.00000   0.04766   0.04767   2.09797
    D2       -1.08481   0.00013   0.00000   0.04785   0.04786  -1.03695
    D3       -0.67707   0.00007   0.00000   0.02061   0.02060  -0.65648
    D4        2.47100   0.00005   0.00000   0.02080   0.02078   2.49179
    D5       -1.67411  -0.00007   0.00000  -0.02539  -0.02539  -1.69951
    D6        2.72244  -0.00005   0.00000  -0.02279  -0.02279   2.69966
    D7        0.36008  -0.00009   0.00000  -0.03080  -0.03081   0.32927
    D8        1.03525   0.00001   0.00000   0.00314   0.00315   1.03840
    D9       -0.85138   0.00002   0.00000   0.00574   0.00575  -0.84562
   D10        3.06944  -0.00001   0.00000  -0.00227  -0.00227   3.06717
   D11       -0.48701  -0.00003   0.00000  -0.03663  -0.03660  -0.52361
   D12        2.98526   0.00002   0.00000   0.00091   0.00088   2.98614
   D13        2.66092  -0.00005   0.00000  -0.03644  -0.03642   2.62451
   D14       -0.14999  -0.00000   0.00000   0.00109   0.00106  -0.14893
   D15        3.07211   0.00004   0.00000   0.02455   0.02455   3.09666
   D16        0.90133   0.00005   0.00000   0.02362   0.02363   0.92496
   D17       -1.02601   0.00004   0.00000   0.02404   0.02405  -1.00196
   D18       -1.10082   0.00003   0.00000   0.02458   0.02458  -1.07624
   D19        3.01159   0.00004   0.00000   0.02366   0.02366   3.03525
   D20        1.08425   0.00003   0.00000   0.02408   0.02408   1.10833
   D21        0.82954   0.00003   0.00000   0.02389   0.02388   0.85342
   D22       -1.34123   0.00004   0.00000   0.02296   0.02296  -1.31827
   D23        3.01461   0.00003   0.00000   0.02339   0.02338   3.03799
   D24       -0.85984   0.00003   0.00000   0.02031   0.02031  -0.83953
   D25        1.24455   0.00004   0.00000   0.02107   0.02107   1.26562
   D26       -2.97080   0.00004   0.00000   0.02025   0.02025  -2.95055
   D27        1.23473   0.00003   0.00000   0.01407   0.01407   1.24880
   D28       -2.94406   0.00003   0.00000   0.01484   0.01483  -2.92923
   D29       -0.87623   0.00003   0.00000   0.01402   0.01401  -0.86222
   D30        3.00770   0.00001   0.00000   0.01240   0.01240   3.02010
   D31       -1.17110   0.00001   0.00000   0.01317   0.01317  -1.15793
   D32        0.89673   0.00001   0.00000   0.01235   0.01235   0.90908
   D33        3.00257  -0.00001   0.00000  -0.00339  -0.00339   2.99918
   D34       -1.19114  -0.00000   0.00000  -0.00261  -0.00261  -1.19375
   D35        0.88533  -0.00001   0.00000  -0.00149  -0.00149   0.88384
   D36       -1.18473   0.00000   0.00000  -0.00314  -0.00314  -1.18787
   D37        0.90475   0.00000   0.00000  -0.00236  -0.00236   0.90239
   D38        2.98122   0.00000   0.00000  -0.00124  -0.00124   2.97998
   D39        0.90861  -0.00000   0.00000  -0.00364  -0.00364   0.90497
   D40        2.99809  -0.00000   0.00000  -0.00287  -0.00287   2.99523
   D41       -1.20863  -0.00000   0.00000  -0.00174  -0.00174  -1.21037
   D42        0.15392   0.00005   0.00000   0.03044   0.03044   0.18436
   D43        2.27030   0.00004   0.00000   0.03047   0.03046   2.30077
   D44       -1.93372   0.00005   0.00000   0.03107   0.03107  -1.90264
   D45        2.97575  -0.00001   0.00000  -0.00631  -0.00631   2.96943
   D46       -1.19106  -0.00002   0.00000  -0.00629  -0.00629  -1.19735
   D47        0.88811  -0.00001   0.00000  -0.00568  -0.00568   0.88243
   D48       -0.57330  -0.00005   0.00000  -0.03750  -0.03750  -0.61080
   D49        1.52959  -0.00005   0.00000  -0.03685  -0.03685   1.49274
   D50       -2.66411  -0.00005   0.00000  -0.03632  -0.03632  -2.70043
   D51        2.86768   0.00001   0.00000  -0.00307  -0.00307   2.86461
   D52       -1.31262   0.00001   0.00000  -0.00243  -0.00243  -1.31505
   D53        0.77687   0.00001   0.00000  -0.00189  -0.00189   0.77497
         Item               Value     Threshold  Converged?
 Maximum Force            0.000154     0.000450     YES
 RMS     Force            0.000036     0.000300     YES
 Maximum Displacement     0.083717     0.001800     NO 
 RMS     Displacement     0.020566     0.001200     NO 
 Predicted change in Energy=-2.493957D-05
 GradGradGradGradGradGradGradGradGradGradGradGradGradGradGradGradGradGrad

                          Input orientation:                          
 ---------------------------------------------------------------------
 Center     Atomic      Atomic             Coordinates (Angstroms)
 Number     Number       Type             X           Y           Z
 ---------------------------------------------------------------------
      1          6           0       -0.524516    0.311352    0.007499
      2          6           0       -1.943833    0.158327    0.367078
      3          8           0       -2.507129    0.908841    1.166648
      4          6           0        0.450784   -0.649167    0.199419
      5          6           0        2.415100   -1.112551    2.317139
      6          1           0        2.901947   -0.633031    3.166419
      7          1           0        1.992291   -2.060270    2.640263
      8          1           0        3.150931   -1.288305    1.535113
      9          7           0        1.350888   -0.257428    1.785841
     10          1           0        0.577823   -0.182094    2.439500
     11          1           0        1.689798    0.684836    1.618070
     12         35           0        2.049574   -0.560868   -1.019569
     13          6           0        0.090951   -2.095115    0.411859
     14          1           0       -0.692656   -2.189779    1.162708
     15          1           0       -0.256077   -2.536657   -0.519073
     16          1           0        0.961431   -2.661178    0.733166
     17         35           0        0.029280    2.141873   -0.129809
     18          7           0       -2.632650   -0.866125   -0.217001
     19          6           0       -2.340120   -1.395974   -1.532930
     20          6           0       -3.966688   -1.155500    0.266494
     21          1           0       -1.397899   -0.996320   -1.897080
     22          1           0       -2.286795   -2.486912   -1.511085
     23          1           0       -3.134395   -1.110697   -2.230020
     24          1           0       -4.019872   -0.981120    1.337679
     25          1           0       -4.719520   -0.530115   -0.225033
     26          1           0       -4.196759   -2.201210    0.059526
 ---------------------------------------------------------------------
                    Distance matrix (angstroms):
                    1          2          3          4          5
     1  C    0.000000
     2  C    1.472132   0.000000
     3  O    2.373051   1.232836   0.000000
     4  C    1.382259   2.532656   3.480254   0.000000
     5  C    4.000411   4.941474   5.444079   2.925406   0.000000
     6  H    4.755132   5.651914   5.969468   3.848577   1.090062
     7  H    4.346304   5.057926   5.588554   3.213281   1.086898
     8  H    4.289688   5.423437   6.080860   3.079508   1.088073
     9  N    2.646347   3.611222   4.077730   1.865577   1.464944
    10  H    2.715377   3.281702   3.511014   2.291780   2.063082
    11  H    2.763443   3.878848   4.227074   2.308092   2.060428
    12  Br   2.905439   4.288045   5.263376   2.012426   3.401703
    13  C    2.516623   3.036503   4.042707   1.505117   3.161834
    14  H    2.760152   2.777062   3.590790   2.146827   3.485868
    15  H    2.908692   3.301018   4.447509   2.139743   4.148176
    16  H    3.401554   4.064996   4.996384   2.143324   2.649598
    17  Br   1.917381   2.841571   3.103955   2.841823   4.719213
    18  N    2.425093   1.365694   2.254050   3.118980   5.653527
    19  C    2.929897   2.486549   3.553559   3.368664   6.124988
    20  C    3.750637   2.414167   2.683671   4.446902   6.703299
    21  H    2.469863   2.599551   3.774448   2.816638   5.684375
    22  H    3.638957   3.262271   4.330120   3.714495   6.217073
    23  H    3.720240   3.126145   4.001169   4.355307   7.174508
    24  H    3.956940   2.559364   2.426849   4.625212   6.510413
    25  H    4.284879   2.920443   2.983629   5.189063   7.596359
    26  H    4.449835   3.276839   3.708501   4.901842   7.070974
                    6          7          8          9         10
     6  H    0.000000
     7  H    1.772378   0.000000
     8  H    1.775539   1.777563   0.000000
     9  N    2.110179   2.095632   2.089432   0.000000
    10  H    2.476551   2.359781   2.943213   1.015173   0.000000
    11  H    2.367163   2.944824   2.456640   1.015317   1.631810
    12  Br   4.272498   3.955484   2.875508   2.906984   3.778184
    13  C    4.198451   2.929521   3.357993   2.617702   2.829845
    14  H    4.399942   3.067390   3.965413   2.880685   2.697242
    15  H    5.213421   3.906854   4.169624   3.617989   3.872016
    16  H    3.714795   2.249618   2.705884   2.652888   3.033906
    17  Br   5.178554   5.402288   4.927757   3.342605   3.507574
    18  N    6.491041   5.565969   6.057882   4.500051   4.222799
    19  C    7.081329   6.051992   6.290955   5.092550   5.076229
    20  C    7.474001   6.477872   7.231012   5.602818   5.130503
    21  H    6.652794   5.763060   5.705879   4.654642   4.834498
    22  H    7.227653   5.977148   6.347034   5.391944   5.396791
    23  H    8.110927   7.134722   7.328922   6.080540   6.037159
    24  H    7.167777   6.245590   7.180094   5.437797   4.794919
    25  H    8.342619   7.456521   8.100430   6.400611   5.939924
    26  H    7.905921   6.707042   7.549787   6.126568   5.704186
                   11         12         13         14         15
    11  H    0.000000
    12  Br   2.939108   0.000000
    13  C    3.426279   2.870384   0.000000
    14  H    3.761230   3.864648   1.089392   0.000000
    15  H    4.328028   3.077380   1.087208   1.771811   0.000000
    16  H    3.536861   2.944052   1.086923   1.772774   1.750982
    17  Br   2.816977   3.489709   4.271917   4.577663   4.703360
    18  N    4.945353   4.760306   3.053503   2.723827   2.920619
    19  C    5.522573   4.497817   3.190785   3.257412   2.583079
    20  C    6.099953   6.180854   4.167547   3.548552   4.036501
    21  H    4.971563   3.583952   2.958922   3.359169   2.361206
    22  H    5.972009   4.770255   3.083001   3.127098   2.260615
    23  H    6.426864   5.351733   4.283861   4.317073   3.639425
    24  H    5.954356   6.524676   4.358554   3.544268   4.475865
    25  H    6.778827   6.815634   5.098577   4.571208   4.902549
    26  H    6.738684   6.547659   4.303469   3.673674   3.997033
                   16         17         18         19         20
    16  H    0.000000
    17  Br   4.968192   0.000000
    18  N    4.128250   4.017651   0.000000
    19  C    4.199545   4.483209   1.448441   0.000000
    20  C    5.174091   5.195911   1.448159   2.437515   0.000000
    21  H    3.905943   3.874060   2.089073   1.086328   3.362301
    22  H    3.951963   5.357031   2.102670   1.092459   2.784688
    23  H    5.287746   4.999894   2.088974   1.094619   2.631977
    24  H    5.291636   5.319985   2.086777   3.351725   1.086588
    25  H    6.142701   5.449742   2.113763   2.849886   1.095199
    26  H    5.222287   6.062806   2.074935   2.575156   1.090540
                   21         22         23         24         25
    21  H    0.000000
    22  H    1.777918   0.000000
    23  H    1.771821   1.768971   0.000000
    24  H    4.163969   3.658746   3.678224   0.000000
    25  H    3.747833   3.376556   2.621005   1.770588   0.000000
    26  H    3.621282   2.489258   2.749519   1.775833   1.773925
                   26
    26  H    0.000000
 Stoichiometry    C7H14Br2N2O
 Framework group  C1[X(C7H14Br2N2O)]
 Deg. of freedom    72
 Full point group                 C1      NOp   1
 Largest Abelian subgroup         C1      NOp   1
 Largest concise Abelian subgroup C1      NOp   1
                         Standard orientation:                         
 ---------------------------------------------------------------------
 Center     Atomic      Atomic             Coordinates (Angstroms)
 Number     Number       Type             X           Y           Z
 ---------------------------------------------------------------------
      1          6           0       -0.521058    0.310698    0.000897
      2          6           0       -1.938697    0.159747    0.367893
      3          8           0       -2.500648    0.920240    1.158936
      4          6           0        0.457024   -0.644965    0.202652
      5          6           0        2.430176   -1.074373    2.319319
      6          1           0        2.919129   -0.581930    3.159950
      7          1           0        2.010620   -2.018345    2.657308
      8          1           0        3.163481   -1.259553    1.537095
[...]
 001669,-0.00143139,0.00019694,-0.00135284,0.00002288,0.00003694,0.0001
 5454,0.00005186,0.00006309,0.00002204,-0.00044573,0.00003000,0.0001718
 2,-0.00118618,0.00004682,-0.00023669,0.00016412,-0.00006546,-0.0000256
 0,-0.00346668,0.00144135,-0.00270798,0.00000964,-0.00007337,-0.0000587
 7,-0.00004493,-0.00016158,0.00016480,-0.10326112,-0.01511475,0.0230118
 6,0.61323562,0.00199794,-0.00261153,-0.00390355,0.00467130,-0.02296342
 ,-0.02491776,-0.00531461,0.00137000,-0.00208908,-0.00135422,0.00049027
 ,-0.00104126,0.00001778,0.00027126,0.00023370,0.00009387,-0.00008586,0
 .00006456,0.00000789,-0.00002149,-0.00000222,-0.00001733,-0.00001193,-
 0.00000315,0.00081536,-0.00021846,0.00076178,0.00002373,-0.00002152,-0
 .00005790,-0.00002721,-0.00004943,-0.00002023,0.00028329,-0.00000842,0
 .00010684,0.00035690,-0.00032093,0.00027897,-0.00001512,0.00004707,-0.
 00001701,0.00252893,-0.00001082,0.00149317,0.00008572,-0.00001620,0.00
 009716,0.00011547,0.00030742,-0.00015909,-0.00361884,-0.08790338,-0.05
 426660,0.02907604,0.57345471,0.00153348,-0.00282707,-0.00350438,-0.012
 24143,-0.01244385,-0.02156900,0.00089959,0.00438616,0.00899916,-0.0022
 6889,0.00131268,-0.00127130,0.00003474,0.00036583,0.00036131,0.0001591
 9,-0.00008921,0.00008828,0.00000402,0.00000239,-0.00001471,-0.00001670
 ,-0.00001908,-0.00000459,0.00085535,-0.00070535,0.00077282,-0.00002340
 ,-0.00003606,-0.00011347,-0.00006852,-0.00006862,-0.00006472,0.0003516
 4,0.00008707,0.00016945,-0.00059521,-0.00092239,0.00018639,0.00002243,
 0.00032722,-0.00080761,-0.00181210,0.00036275,-0.00070406,0.00046592,-
 0.00004617,-0.00028200,0.00072695,0.00093903,-0.00034374,0.04375725,-0
 .06280955,-0.20164452,-0.00197666,-0.02395363,0.49872189,0.00541687,-0
 .00342577,0.00049944,-0.03311709,-0.02138600,-0.00570449,-0.00059185,0
 .00791874,0.00772529,-0.00299839,0.00128085,-0.00077295,-0.00003475,0.
 00044657,0.00031496,0.00016584,-0.00012527,0.00009936,-0.00000151,-0.0
 0002342,-0.00002149,-0.00001343,-0.00002561,-0.00001835,0.00134799,-0.
 00019481,0.00109690,-0.00003739,-0.00005331,-0.00019602,-0.00003378,-0
 .00008706,0.00002272,0.00083120,0.00005406,-0.00027346,0.00054822,-0.0
 0011618,0.00030290,-0.00022985,0.00035025,-0.00045465,-0.00035895,0.00
 012992,-0.00002215,0.00031083,0.00003134,-0.00005843,-0.00023758,-0.00
 003181,-0.00024791,-0.20755265,-0.02919584,0.05253115,-0.00962037,-0.0
 0011652,0.00771853,0.50224270,-0.00465122,0.00059369,-0.00315847,-0.02
 774126,-0.01144464,0.00592080,-0.00448133,-0.00094833,0.00659590,0.000
 50950,-0.00108879,0.00108574,-0.00000093,-0.00018989,-0.00016377,-0.00
 007242,0.00006384,-0.00004521,-0.00000416,0.00001554,-0.00000803,0.000
 00325,0.00000540,0.00000251,-0.00067432,0.00021711,-0.00074763,-0.0000
 4320,0.00001165,0.00000409,0.00001984,0.00005034,0.00002665,0.00000337
 ,-0.00002196,-0.00006325,-0.00000834,-0.00010039,-0.00006243,0.0000761
 7,0.00007360,-0.00008334,0.00000676,0.00009605,0.00001726,0.00013038,0
 .00004655,-0.00000935,0.00004936,0.00022711,-0.00040606,-0.02807839,-0
 .08516454,-0.00967587,0.01232428,0.00284255,-0.00040256,-0.00461003,0.
 58428720,-0.00090318,-0.00263652,0.00100887,-0.01088557,0.00766544,0.0
 1453627,0.00101492,-0.00173068,-0.00608074,0.00209599,-0.00076856,0.00
 036051,0.00003070,-0.00020774,-0.00013632,-0.00008499,0.00005850,-0.00
 004835,-0.00000298,0.00001536,0.00000627,0.00000120,0.00001254,0.00001
 164,-0.00067735,0.00006979,-0.00058906,0.00002252,0.00002028,0.0001151
 8,0.00004455,0.00001775,0.00002645,-0.00053227,0.00004681,0.00020117,-
 0.00012913,0.00003946,-0.00010672,-0.00007011,-0.00005945,0.00013094,-
 0.00006759,0.00012541,-0.00009511,-0.00011570,0.00003116,0.00003232,-0
 .00117614,-0.00130931,0.00029705,0.03792844,-0.01196047,-0.10745306,0.
 03305693,0.00706238,-0.01685448,0.02173946,0.03098966,0.60369239,-0.00
 087019,-0.00061725,-0.00206632,-0.00058499,-0.00167455,-0.00115629,-0.
 00010913,0.00069473,0.00027906,-0.00032624,-0.00015535,-0.00189006,0.0
 0001123,0.00004004,0.00004706,0.00002337,-0.00000557,0.00001811,0.0000
 0060,0.00000560,0.00000286,-0.00001224,0.00000223,-0.00000359,-0.00007
 094,-0.00013150,0.00004539,0.00001681,0.00000166,0.00001364,-0.0000145
 1,-0.00001458,-0.00001969,-0.00028446,0.00010417,0.00045737,-0.0004437
 6,-0.00002402,-0.00036315,0.00004495,0.00003108,0.00008222,-0.00066068
 ,0.00043140,-0.00068767,-0.00004387,-0.00007474,-0.00004895,0.00016270
 ,0.00030715,0.00009248,-0.00692531,-0.00068996,0.00369503,-0.25808415,
 -0.08812560,0.08361929,0.00154756,0.00031545,0.00206237,0.27939907,-0.
 00008523,-0.00071717,-0.00008217,0.00059081,0.00085809,-0.00066058,-0.
 00001858,0.00011965,0.00003741,-0.00102746,0.00109503,-0.00101038,0.00
 003251,0.00010107,0.00009816,0.00004590,-0.00003214,0.00002360,0.00000
 269,-0.00000410,0.00001299,0.00000179,-0.00000052,0.00000089,0.0003087
 1,-0.00025938,0.00034464,0.00000310,0.00000437,-0.00001882,-0.00003036
 ,-0.00001939,-0.00003992,0.00011296,-0.00003356,0.00003782,-0.00009645
 ,-0.00006197,0.00030454,0.00002594,-0.00004916,-0.00003837,0.00077483,
 -0.00112735,0.00071519,-0.00012947,-0.00012300,-0.00016119,0.00002819,
 -0.00003672,0.00002571,0.01341917,0.00384444,-0.00439940,-0.09327807,-
 0.08804910,0.03702607,-0.00025037,-0.00103711,-0.00231621,0.09665134,0
 .08964222,0.00035915,-0.00024833,0.00189264,0.00269144,0.00219195,0.00
 098446,-0.00025256,-0.00022012,-0.00047090,-0.00273962,0.00063082,-0.0
 0157727,-0.00001656,0.00016491,0.00010120,0.00007318,-0.00004226,0.000
 04199,-0.00000192,-0.00000759,-0.00001170,-0.00000435,-0.00001000,-0.0
 0001498,0.00059557,0.00001951,0.00050405,-0.00001496,-0.00002889,-0.00
 010978,-0.00002764,-0.00003053,-0.00000365,0.00042021,-0.00003746,-0.0
 0022584,-0.00004282,0.00002626,-0.00045082,0.00002298,-0.00001368,0.00
 010219,-0.00080755,0.00083549,-0.00061057,0.00004941,-0.00001690,0.000
 22542,0.00009630,0.00022341,0.00022246,0.03009514,0.01082052,-0.013180
 86,0.07321181,0.03088599,-0.07732314,-0.00113085,-0.00255563,-0.004607
 72,-0.08857275,-0.03525230,0.08728773,0.00050545,-0.00009511,-0.000913
 75,-0.00209741,-0.00128882,-0.00067564,0.00041263,0.00032094,0.0004193
 1,0.00005516,-0.00052087,0.00020985,-0.00002827,0.00003463,0.00001528,
 0.00001088,-0.00000300,0.00000620,-0.00000255,0.00000095,-0.00001495,-
 0.00000146,-0.00000507,-0.00000243,0.00011700,0.00010732,0.00008940,0.
 00000121,-0.00001651,-0.00001384,0.00001136,-0.00000078,0.00003197,-0.
 00006720,0.00004006,0.00004015,0.00005541,-0.00024830,-0.00029957,-0.0
 0001871,0.00004094,-0.00003701,-0.00154508,0.00011732,-0.00076142,0.00
 016153,0.00012421,0.00017537,0.00000256,0.00008963,-0.00009667,0.00032
 067,0.00650567,0.00424446,-0.05009450,0.01085321,-0.00079798,0.0010872
 6,0.00145215,-0.00022528,0.00407341,-0.02729121,0.00087406,0.04815822,
 -0.00073460,0.00055360,-0.00014787,0.00506639,0.00228594,0.00276088,-0
 .00014895,-0.00162980,-0.00238148,0.00096167,-0.00101199,0.00047925,-0
 .00002664,-0.00009610,-0.00008857,-0.00003938,0.00003225,-0.00002268,-
 0.00000317,0.00000913,-0.00001096,0.00000150,0.00000110,0.00000237,-0.
 00028284,0.00024934,-0.00029859,0.00001251,-0.00000291,0.00003823,0.00
 003566,0.00002191,0.00005853,-0.00023347,0.00002698,0.00006802,0.00046
 930,0.00003017,-0.00019465,-0.00011349,-0.00003779,0.00008058,-0.00033
 263,0.00047562,0.00018704,0.00003133,0.00012895,0.00020851,-0.00011380
 ,-0.00007808,0.00007740,-0.00273823,-0.01099910,-0.01118811,0.01106384
 ,-0.30774367,0.01551307,-0.00113043,0.00020795,0.00047350,0.00165438,-
 0.00885798,0.00112656,-0.01447765,0.33505485,-0.00062140,0.00033911,0.
 00033053,0.00659592,-0.00028167,0.00051526,-0.00124763,-0.00193510,-0.
 00321665,0.00051754,-0.00034697,0.00020882,0.00000428,-0.00008482,-0.0
 0005748,-0.00002949,0.00003062,-0.00001739,-0.00000148,0.00000968,-0.0
 0000626,-0.00000142,0.00000274,0.00000248,-0.00028788,0.00005271,-0.00
 027216,0.00000483,-0.00000014,0.00002520,0.00000979,0.00001105,0.00000
 779,-0.00012247,0.00002721,0.00002672,-0.00006543,-0.00024229,-0.00020
 480,0.00009652,-0.00003973,-0.00006434,-0.00083004,0.00001952,-0.00011
 321,0.00008797,0.00007991,0.00007240,-0.00011624,-0.00007995,0.0000732
 2,-0.00061616,-0.03874409,-0.00872221,0.00063313,0.02094915,-0.0481581
 2,-0.00203820,-0.00143202,0.00085800,-0.00237763,0.00974019,-0.0004440
 4,0.00019239,-0.00839752,0.05913568,-0.00148723,0.00004445,-0.00147398
 ,0.00047842,-0.00013791,0.00109480,-0.00043652,0.00072067,-0.00021559,
 0.00161852,-0.00036146,0.00029852,0.00003893,-0.00015721,-0.00007941,-
 0.00005801,0.00004427,-0.00003271,0.00000347,0.00001126,0.00001137,0.0
 0000045,0.00000910,0.00001386,-0.00059096,-0.00007730,-0.00046928,0.00
 001737,0.00002798,0.00009306,0.00000696,0.00002527,-0.00001919,-0.0003
 2370,-0.00000386,0.00020793,-0.00011948,0.00001235,0.00020571,0.000006
 40,-0.00002787,-0.00001922,0.00010516,-0.00044899,-0.00010130,-0.00006
 657,-0.00006111,-0.00017943,-0.00000601,-0.00007907,0.00003652,0.00801
 334,-0.00293918,0.00590551,-0.19259523,0.05274488,-0.11605883,0.002110
 30,-0.00164025,0.00147607,-0.01660006,0.00965892,-0.01641573,-0.000894
 84,-0.00007147,-0.00021598,0.20025183,-0.00107141,-0.00000605,-0.00041
 734,0.00085688,0.00226493,-0.00110326,0.00024548,-0.00096278,0.0002169
 5,0.00079620,-0.00080820,0.00022546,-0.00001982,-0.00006690,-0.0000569
 4,-0.00002848,0.00002448,-0.00001555,-0.00000118,0.00000735,-0.0000098
 6,-0.00000122,-0.00000062,0.00000315,-0.00024159,0.00015673,-0.0002544
 1,0.00000373,-0.00000159,0.00002873,0.00002341,0.00001635,0.00004064,-
 0.00017434,0.00001866,0.00009047,0.00026997,-0.00019777,-0.00021640,-0
 .00004302,-0.00001203,-0.00001848,-0.00033823,0.00011831,0.00017408,0.
 00006160,0.00011213,0.00014191,-0.00002193,-0.00000804,0.00005387,-0.0
 1209135,0.00400866,-0.01458147,0.05417666,-0.07021930,0.04556580,-0.00
 115063,0.00044251,0.00047875,-0.00847753,0.00406836,-0.00830791,0.0248
 7292,-0.00865162,0.01921749,-0.05801608,0.07052995,-0.00140250,0.00072
 864,0.00065815,0.00384196,0.00975544,0.00075505,0.00114264,-0.00351049
 ,-0.00235615,0.00135633,-0.00089131,0.00036785,0.00001359,-0.00021137,
 -0.00014426,-0.00007694,0.00006620,-0.00004611,-0.00000207,0.00001684,
 -0.00000176,0.00000076,0.00000986,0.00000546,-0.00064991,0.00012893,-0
 .00056463,0.00000899,0.00001508,0.00007654,0.00002374,0.00003709,0.000
 00085,-0.00034940,0.00000580,0.00007436,0.00012714,-0.00016657,0.00004
 658,0.00004831,-0.00009547,0.00005956,0.00005349,0.00017073,0.00006452
 ,0.00000161,0.00006531,0.00010546,-0.00010164,-0.00014826,0.00023250,-
 0.02244004,-0.00618238,-0.03469687,-0.11266809,0.04489418,-0.13984398,
 -0.00204073,-0.00037991,0.00132796,0.00713316,-0.00411865,0.00810853,-
 0.00217716,0.00178011,-0.00015287,0.12717152,-0.04188988,0.16589554,-0
 .00030821,0.00047593,-0.00029320,0.00072519,0.00240375,0.00330797,0.00
 001872,-0.00123712,-0.00206851,0.00019349,-0.00008377,0.00009302,-0.00
 000173,-0.00004104,-0.00003354,-0.00001534,0.00001181,-0.00000911,0.00
 000039,0.00000207,0.00000224,0.00000207,0.00000165,0.00000109,-0.00012
 788,0.00002196,-0.00010170,0.00000020,0.00000428,0.00001403,0.00000126
 ,0.00000777,-0.00000515,-0.00001318,-0.00000256,0.00000231,-0.00003384
 ,-0.00000405,0.00002251,0.00002595,-0.00001608,0.00000108,0.00005164,-
 0.00004406,0.00000833,-0.00001536,-0.00000366,-0.00002295,0.00009157,0
 .00005219,0.00003292,-0.00516992,0.00549889,0.03602432,-0.00481253,-0.
 00311384,0.00046237,-0.04982825,0.00044963,0.00100842,-0.00050976,0.00
 057577,0.00158042,0.00006581,0.00012746,-0.00022540,0.00012441,-0.0000
 8860,0.00004477,0.05779969,0.00036978,0.00016462,-0.00029659,-0.001392
 37,0.00096271,0.00178039,-0.00041736,-0.00173419,-0.00105127,-0.000199
 90,0.00009667,-0.00004373,-0.00000511,0.00000527,-0.00000130,0.0000020
 7,-0.00000147,0.00000124,0.00000035,-0.00000161,0.00000030,0.00000011,
 -0.00000068,-0.00000126,0.00001939,0.00000637,0.00002406,0.00000071,0.
 00000197,-0.00000365,-0.00000268,-0.00000130,-0.00000331,0.00008496,-0
 .00000963,-0.00002726,-0.00001435,0.00001175,-0.00001961,-0.00000693,-
 0.00000542,0.00001044,-0.00001440,0.00000164,-0.00000700,-0.00000528,-
 0.00000165,0.00000419,0.00000313,-0.00000937,0.00005149,0.00044360,-0.
 00031925,0.00704148,-0.00049093,-0.00028626,-0.00022337,0.00196661,-0.
 05388917,-0.04670920,-0.00019563,0.00033002,0.00000597,-0.00004291,0.0
 0030670,0.00005842,-0.00005905,-0.00010889,-0.00016562,-0.00080841,0.0
 5303695,0.00019876,0.00018373,-0.00001390,-0.00023496,-0.00376265,-0.0
 0186290,-0.00320919,-0.00072736,0.00157691,-0.00023793,0.00001353,-0.0
 0007814,-0.00000034,0.00002189,0.00001689,0.00000926,-0.00000553,0.000
 00544,-0.00000025,-0.00000055,-0.00000241,-0.00000119,-0.00000127,-0.0
 0000081,0.00008080,0.00000109,0.00006492,0.00000284,-0.00000512,-0.000
 01011,-0.00000037,-0.00000409,0.00000431,0.00000727,0.00001121,0.00000
 731,0.00005833,-0.00004774,0.00001640,0.00003199,0.00000500,-0.0000547
 8,-0.00003939,0.00003053,0.00000745,0.00003263,0.00001023,0.00000571,-
 0.00005035,0.00003267,0.00002244,0.00481538,-0.00137664,-0.01007159,0.
 00199008,0.00205108,0.00047372,0.01101113,-0.04239054,-0.31944057,0.00
 010120,-0.00041146,-0.00051857,-0.00011549,-0.00003853,0.00007471,-0.0
 0022284,0.00000420,0.00029224,-0.01362687,0.04952388,0.34437142,-0.000
 58714,-0.00011820,0.00052711,0.00118015,0.00813133,0.00557473,0.001474
 26,-0.00183824,-0.00346884,0.00147510,-0.00053764,0.00021118,0.0000156
 9,-0.00017478,-0.00011882,-0.00006741,0.00004866,-0.00003871,-0.000000
 17,0.00000972,0.00000783,0.00000342,0.00001037,0.00000844,-0.00053530,
 0.00006538,-0.00041970,0.00002143,0.00002149,0.00009158,0.00002311,0.0
 0002340,0.00000098,-0.00036633,0.00001326,0.00013554,-0.00013601,0.000
 04025,-0.00004179,0.00002084,-0.00009905,0.00011775,0.00003702,-0.0000
 0201,-0.00003175,-0.00011227,0.00000537,0.00000211,-0.00037847,-0.0004
 7648,0.00021991,-0.03898718,0.00824274,-0.00915701,-0.00014360,-0.0006
 0262,-0.00316011,-0.15440930,0.09834370,-0.07754423,0.00016789,-0.0001
 5979,0.00025815,-0.00000342,0.00032185,0.00033926,0.00051602,0.0002165
 6,0.00074075,0.00185888,-0.00078502,-0.00000464,0.18371717,0.00048303,
 -0.00044703,0.00047479,-0.00185437,0.00025006,-0.00014976,0.00092877,0
 .00082681,0.00025556,0.00001644,0.00005963,-0.00004371,-0.00000086,0.0
 0001277,0.00000915,0.00000392,-0.00000419,0.00000198,-0.00000048,-0.00
 000094,0.00000018,0.00000023,-0.00000054,-0.00000065,0.00003821,-0.000
 01380,0.00003519,-0.00000415,0.00000052,-0.00000363,0.00000041,-0.0000
 0439,0.00000098,-0.00000076,0.00000209,-0.00000166,-0.00002810,0.00002
 806,0.00000465,-0.00001883,-0.00000309,0.00000449,-0.00002706,0.000005
 84,-0.00002161,-0.00001248,-0.00000368,-0.00000045,-0.00012922,-0.0001
 8107,0.00002801,-0.00689846,0.00979258,-0.00681440,-0.00003336,0.00018
 324,-0.00026956,0.09934627,-0.13875488,0.07104797,-0.00002947,0.000050
 27,-0.00015640,-0.00015901,-0.00024848,0.00032519,0.00052991,-0.000350
 30,-0.00016349,-0.00449592,0.00337024,-0.00308539,-0.10781011,0.142605
 83,-0.00028252,0.00027025,-0.00042133,0.00002096,0.00003703,0.00040902
 ,0.00070113,0.00052183,0.00041445,-0.00002043,-0.00007765,0.00002683,0
 .00000056,-0.00002003,-0.00001317,-0.00000582,0.00000748,-0.00000335,0
 .00000072,0.00000189,-0.00000106,-0.00000078,0.00000040,0.00000031,-0.
 00006696,0.00001794,-0.00005525,0.00000168,0.00000299,0.00000359,-0.00
 000045,0.00000449,-0.00000199,0.00002869,-0.00000552,-0.00001224,0.000
 04889,-0.00007381,-0.00001699,0.00002313,-0.00000587,-0.00002363,0.000
 05608,-0.00000953,0.00006915,0.00002767,0.00000956,0.00000630,0.000040
 20,0.00006498,0.00001632,0.01118198,-0.00970627,0.00711656,0.00107052,
 -0.00023489,0.00260575,-0.07884625,0.07027185,-0.10613277,-0.00019884,
 0.00014484,-0.00004014,-0.00020017,0.00020036,-0.00011669,-0.00118033,
 0.00053169,-0.00009508,-0.02044113,0.01936411,-0.01316249,0.08303100,-
 0.07683229,0.10615476,-0.00183515,0.00022592,-0.00075288,-0.00170151,0
 .00126336,0.00605030,0.00087576,-0.00027561,-0.00074695,0.00107168,-0.
 00070402,0.00052633,0.00000807,-0.00017340,-0.00012874,-0.00006586,0.0
 0005247,-0.00003865,-0.00000134,0.00001195,0.00000132,0.00000246,0.000
 00792,0.00000587,-0.00056083,0.00012067,-0.00051543,-0.00000049,0.0000
 1506,0.00005733,0.00002248,0.00003024,0.00001054,-0.00019752,0.0000025
 4,0.00004657,-0.00004608,-0.00001738,-0.00003790,0.00002198,-0.0000259
 6,0.00000912,0.00000232,0.00003111,-0.00000143,-0.00000966,0.00002844,
 -0.00000777,-0.00025265,-0.00027114,-0.00000838,-0.01710287,-0.0372182
 8,-0.00690836,0.00098635,-0.00136638,-0.00159092,-0.05654363,-0.041677
 99,-0.00806705,0.00009270,0.00013437,-0.00030050,-0.00028511,0.0007008
 9,0.00031523,-0.00011296,0.00024200,0.00019973,-0.00012327,0.00154962,
 -0.00059585,0.00521562,0.02015545,0.00501045,0.07053950,-0.00068952,0.
 00035723,0.00021339,0.00200735,0.00090780,0.00218267,-0.00071412,-0.00
 030847,-0.00045229,0.00064000,-0.00032192,0.00020024,0.00000626,-0.000
 08901,-0.00006509,-0.00003345,0.00002552,-0.00002060,-0.00000072,0.000
 00528,0.00000247,0.00000291,0.00000477,0.00000319,-0.00027063,0.000054
 13,-0.00022845,0.00000321,0.00000924,0.00003494,0.00001063,0.00001513,
 0.00000258,-0.00018230,-0.00000228,0.00005078,-0.00009067,0.00001946,-
 0.00003797,0.00000850,-0.00004528,0.00004479,0.00001179,-0.00000011,-0
 .00001144,-0.00004304,0.00000431,0.00000414,-0.00010143,-0.00009447,0.
 00002845,-0.00586575,-0.00497664,-0.00231142,0.00051102,0.00157523,-0.
 00107159,-0.04960152,-0.29654139,-0.05045663,-0.00002347,0.00029516,-0
 .00000339,-0.00041073,-0.00002698,0.00072131,0.00025174,-0.00037432,0.
 00024920,0.00030593,-0.00192602,-0.00003218,-0.00289014,-0.01717558,-0
 .00448582,0.05715816,0.31860922,0.00076466,-0.00017482,0.00055792,0.00
 161507,-0.00210400,-0.00335585,-0.00277603,-0.00097862,0.00113293,-0.0
 0019647,0.00022066,-0.00017793,0.00000432,0.00005929,0.00005237,0.0000
 2392,-0.00001874,0.00001331,-0.00000005,-0.00000270,0.00000013,-0.0000
 0002,-0.00000163,-0.00000111,0.00021227,-0.00005938,0.00020187,0.00000
 623,-0.00000671,-0.00001123,-0.00000363,-0.00001232,-0.00000137,-0.000
 04773,0.00001133,0.00002223,0.00001656,0.00000520,0.00001667,0.0000040
 4,-0.00000404,-0.00000099,0.00003356,-0.00002951,0.00001588,-0.0000030
 8,-0.00000966,0.00000115,-0.00003189,0.00002196,0.00000750,0.00682314,
 0.01333562,0.00174716,0.00044447,0.00178742,0.00012504,-0.01123592,-0.
 05333039,-0.06106013,-0.00026430,-0.00000259,0.00011931,0.00003289,-0.
 00028545,0.00021538,0.00016895,0.00009832,-0.00016944,-0.00577823,-0.0
 2931280,-0.00172358,0.00271930,0.01535484,0.00327315,0.00746799,0.0554
 3873,0.05899962\\0.00000040,0.00000139,0.00000102,-0.00000196,-0.00000
 020,-0.00000155,-0.00000178,-0.00000135,-0.00000123,-0.00000148,0.,-0.
 00000292,-0.00000023,0.00000364,0.00000019,-0.00000108,0.00000351,0.00
 000116,0.00000031,0.00000277,0.00000158,0.00000019,0.00000226,0.000003
 79,-0.00000071,0.00000227,0.00000256,-0.00000129,0.00000059,0.00000027
 ,-0.00000202,0.00000220,0.00000022,0.00000003,0.00000164,-0.00000048,-
 0.00000059,0.00000126,0.00000116,0.00000117,-0.00000037,0.00000017,0.0
 0000254,-0.00000016,0.00000053,0.00000100,0.00000132,0.00000152,-0.000
 00195,0.00000029,-0.00000080,0.00000144,-0.00000292,0.00000026,0.00000
 102,-0.00000225,-0.00000046,0.00000009,-0.00000217,-0.00000167,0.00000
 109,-0.00000143,-0.00000016,0.00000178,-0.00000180,-0.00000022,0.00000
 125,-0.00000254,-0.00000090,-0.00000020,-0.00000251,-0.00000133,-0.000
 00001,-0.00000281,-0.00000128,0.00000098,-0.00000263,-0.00000143\\\@


 MICHAEL FARADAY, ASKED BY A POLITICIAN WHAT GOOD
 HIS ELECTRICAL DISCOVERIES WERE, REPLIED 
 "AT PRESENT I DO NOT KNOW, BUT ONE DAY YOU WILL BE
 ABLE TO TAX THEM."
 Job cpu time:       0 days 10 hours  3 minutes 31.2 seconds.
 Elapsed time:       0 days  0 hours 37 minutes 49.0 seconds.
 File lengths (MBytes):  RWF=    779 Int=      0 D2E=      0 Chk=     31 Scr=      1
 Normal termination of Gaussian 16 at Mon Feb 22 07:02:23 2021.
