 Entering Gaussian System, Link 0=g16
 Initial command:
 /apps/gaussian/16/A.03/g16/l1.exe "/beegfs/scratch/user/q/tla25/Gau-87758.inp" -scrdir="/beegfs/scratch/user/q/tla25/"
 Entering Link 1 = /apps/gaussian/16/A.03/g16/l1.exe PID=     87759.
  
 Copyright (c) 1988,1990,1992,1993,1995,1998,2003,2009,2016,
            Gaussian, Inc.  All Rights Reserved.
  
 This is part of the Gaussian(R) 16 program.  It is based on
 the Gaussian(R) 09 system (copyright 2009, Gaussian, Inc.),
 the Gaussian(R) 03 system (copyright 2003, Gaussian, Inc.),
 the Gaussian(R) 98 system (copyright 1998, Gaussian, Inc.),
 the Gaussian(R) 94 system (copyright 1995, Gaussian, Inc.),
 the Gaussian 92(TM) system (copyright 1992, Gaussian, Inc.),
 the Gaussian 90(TM) system (copyright 1990, Gaussian, Inc.),
 the Gaussian 88(TM) system (copyright 1988, Gaussian, Inc.),
 the Gaussian 86(TM) system (copyright 1986, Carnegie Mellon
 University), and the Gaussian 82(TM) system (copyright 1983,
 Carnegie Mellon University). Gaussian is a federally registered
 trademark of Gaussian, Inc.
  
 This software contains proprietary and confidential information,
 including trade secrets, belonging to Gaussian, Inc.
  
 This software is provided under written license and may be
 used, copied, transmitted, or stored only in accord with that
 written license.
  
 The following legend is applicable only to US Government
 contracts under FAR:
  
                    RESTRICTED RIGHTS LEGEND
  
 Use, reproduction and disclosure by the US Government is
 subject to restrictions as set forth in subparagraphs (a)
 and (c) of the Commercial Computer Software - Restricted
 Rights clause in FAR 52.227-19.
  
 Gaussian, Inc.
 340 Quinnipiac St., Bldg. 40, Wallingford CT 06492
  
  
 ---------------------------------------------------------------
 Warning -- This program may not be used in any manner that
 competes with the business of Gaussian, Inc. or will provide
 assistance to any competitor of Gaussian, Inc.  The licensee
 of this program is prohibited from giving any competitor of
 Gaussian, Inc. access to this program.  By using this program,
 the user acknowledges that Gaussian, Inc. is engaged in the
 business of creating and licensing software in the field of
 computational chemistry and represents and warrants to the
 licensee that it is not a competitor of Gaussian, Inc. and that
 it will not use this program in any manner prohibited above.
 ---------------------------------------------------------------
  

 Cite this work as:
 Gaussian 16, Revision A.03,
 M. J. Frisch, G. W. Trucks, H. B. Schlegel, G. E. Scuseria, 
 M. A. Robb, J. R. Cheeseman, G. Scalmani, V. Barone, 
 G. A. Petersson, H. Nakatsuji, X. Li, M. Caricato, A. V. Marenich, 
 J. Bloino, B. G. Janesko, R. Gomperts, B. Mennucci, H. P. Hratchian, 
 J. V. Ortiz, A. F. Izmaylov, J. L. Sonnenberg, D. Williams-Young, 
 F. Ding, F. Lipparini, F. Egidi, J. Goings, B. Peng, A. Petrone, 
 T. Henderson, D. Ranasinghe, V. G. Zakrzewski, J. Gao, N. Rega, 
 G. Zheng, W. Liang, M. Hada, M. Ehara, K. Toyota, R. Fukuda, 
 J. Hasegawa, M. Ishida, T. Nakajima, Y. Honda, O. Kitao, H. Nakai, 
 T. Vreven, K. Throssell, J. A. Montgomery, Jr., J. E. Peralta, 
 F. Ogliaro, M. J. Bearpark, J. J. Heyd, E. N. Brothers, K. N. Kudin, 
 V. N. Staroverov, T. A. Keith, R. Kobayashi, J. Normand, 
 K. Raghavachari, A. P. Rendell, J. C. Burant, S. S. Iyengar, 
 J. Tomasi, M. Cossi, J. M. Millam, M. Klene, C. Adamo, R. Cammi, 
 J. W. Ochterski, R. L. Martin, K. Morokuma, O. Farkas, 
 J. B. Foresman, and D. J. Fox, Gaussian, Inc., Wallingford CT, 2016.
 
 ******************************************
 Gaussian 16:  ES64L-G16RevA.03 25-Dec-2016
                22-Feb-2021 
 ******************************************
 %nprocshared=16
 Will use up to   16 processors via shared memory.
 %mem=48GB
 ----------------------------------------------------------------------
 # wB97XD def2tzvp, opt=(ts, noeigen, calcfc, maxcycles=70, maxstep=5),
  freq=noraman, scrf=(iefpcm, solvent=water)
 ----------------------------------------------------------------------
 1/5=1,6=70,8=5,10=4,11=1,18=20,26=3,38=1/1,3;
 2/9=110,12=2,17=6,18=5,40=1/2;
 3/5=44,7=101,11=2,25=1,30=1,70=2201,71=2,72=1,74=-58,140=1/1,2,3;
 4//1;
 5/5=2,38=5,53=1/2;
 8/6=4,10=90,11=11/1;
 11/6=1,8=1,9=11,15=111,16=1/1,2,10;
 10/6=1,13=1/2;
 6/7=2,8=2,9=2,10=2,28=1/1;
 7/10=1,18=20,25=1/1,2,3,16;
 1/5=1,6=70,8=5,10=4,11=1,18=20,26=3/3(2);
 2/9=110/2;
 99//99;
 2/9=110/2;
 3/5=44,7=101,11=2,25=1,30=1,70=2205,71=1,72=1,74=-58/1,2,3;
 4/5=5,16=3,69=1/1;
 5/5=2,38=5,53=1/2;
 7//1,2,3,16;
 1/5=1,6=70,8=5,11=1,18=20,26=3/3(-5);
 2/9=110/2;
 6/7=2,8=2,9=2,10=2,19=2,28=1/1;
 99/9=1/99;
 ------------------------
 2_iteration/TS-711-2.out
 ------------------------
 Symbolic Z-matrix:
 Charge =  0 Multiplicity = 1
 C                     0.62938  -0.03667  -0.12641 
 C                    -0.71334  -0.59758  -0.23451 
 O                    -0.91541  -1.77771  -0.51836 
 C                     1.79151  -0.79433  -0.16 
 C                     1.43937  -1.41451   2.5736 
 H                     0.50489  -0.90967   2.32114 
 H                     1.31041  -2.48648   2.44509 
 H                     1.68523  -1.20453   3.61404 
 N                     2.47629  -0.93551   1.66966 
 H                     2.76091   0.0092    1.9019 
 H                     3.30303  -1.5216    1.67974 
 Br                    3.40063   0.06339  -0.89817 
 C                     1.79736  -2.25174  -0.53172 
 H                     1.08555  -2.80346   0.07438 
 H                     1.49731  -2.36106  -1.57294 
 H                     2.79615  -2.66532  -0.40886 
 Br                    0.81088   1.82153   0.32465 
 N                    -1.75745   0.27208  -0.02315 
 C                    -3.13416   0.04005  -0.10469 
 C                    -3.96507   1.15676   0.03855 
 C                    -5.34017   1.02844  -0.01699 
 C                    -5.9226   -0.21626  -0.21892 
 C                    -5.10215  -1.32374  -0.35873 
 C                    -3.71911  -1.21165  -0.30237 
 H                    -1.50668   1.22301   0.18831 
 H                    -3.52323   2.13444   0.19446 
 H                    -5.95988   1.90909   0.09688 
 H                    -6.99895  -0.31846  -0.26471 
 H                    -5.53899  -2.30281  -0.51348 
 H                    -3.09302  -2.08128  -0.40843 
 
 Add virtual bond connecting atoms N9         and C4         Dist= 3.70D+00.

 GradGradGradGradGradGradGradGradGradGradGradGradGradGradGradGradGradGrad
 Berny optimization.
 Initialization pass.
                           ----------------------------
                           !    Initial Parameters    !
                           ! (Angstroms and Degrees)  !
 --------------------------                            --------------------------
 ! Name  Definition              Value          Derivative Info.                !
 --------------------------------------------------------------------------------
 ! R1    R(1,2)                  1.4592         calculate D2E/DX2 analytically  !
 ! R2    R(1,4)                  1.3877         calculate D2E/DX2 analytically  !
 ! R3    R(1,17)                 1.9208         calculate D2E/DX2 analytically  !
 ! R4    R(2,3)                  1.2305         calculate D2E/DX2 analytically  !
 ! R5    R(2,18)                 1.3752         calculate D2E/DX2 analytically  !
 ! R6    R(4,9)                  1.9587         calculate D2E/DX2 analytically  !
 ! R7    R(4,12)                 1.9672         calculate D2E/DX2 analytically  !
 ! R8    R(4,13)                 1.5041         calculate D2E/DX2 analytically  !
 ! R9    R(5,6)                  1.0917         calculate D2E/DX2 analytically  !
 ! R10   R(5,7)                  1.0873         calculate D2E/DX2 analytically  !
 ! R11   R(5,8)                  1.0895         calculate D2E/DX2 analytically  !
 ! R12   R(5,9)                  1.4566         calculate D2E/DX2 analytically  !
 ! R13   R(9,10)                 1.0136         calculate D2E/DX2 analytically  !
 ! R14   R(9,11)                 1.0135         calculate D2E/DX2 analytically  !
 ! R15   R(13,14)                1.0856         calculate D2E/DX2 analytically  !
 ! R16   R(13,15)                1.0891         calculate D2E/DX2 analytically  !
 ! R17   R(13,16)                1.088          calculate D2E/DX2 analytically  !
 ! R18   R(18,19)                1.3985         calculate D2E/DX2 analytically  !
 ! R19   R(18,25)                1.0059         calculate D2E/DX2 analytically  !
 ! R20   R(19,20)                1.3993         calculate D2E/DX2 analytically  !
 ! R21   R(19,24)                1.3957         calculate D2E/DX2 analytically  !
 ! R22   R(20,21)                1.3822         calculate D2E/DX2 analytically  !
 ! R23   R(20,26)                1.0842         calculate D2E/DX2 analytically  !
 ! R24   R(21,22)                1.389          calculate D2E/DX2 analytically  !
 ! R25   R(21,27)                1.0828         calculate D2E/DX2 analytically  !
 ! R26   R(22,23)                1.3854         calculate D2E/DX2 analytically  !
 ! R27   R(22,28)                1.0822         calculate D2E/DX2 analytically  !
 ! R28   R(23,24)                1.3887         calculate D2E/DX2 analytically  !
 ! R29   R(23,29)                1.0832         calculate D2E/DX2 analytically  !
 ! R30   R(24,30)                1.0768         calculate D2E/DX2 analytically  !
 ! A1    A(2,1,4)              123.9826         calculate D2E/DX2 analytically  !
 ! A2    A(2,1,17)             118.4396         calculate D2E/DX2 analytically  !
 ! A3    A(4,1,17)             117.0488         calculate D2E/DX2 analytically  !
 ! A4    A(1,2,3)              122.4708         calculate D2E/DX2 analytically  !
 ! A5    A(1,2,18)             116.3704         calculate D2E/DX2 analytically  !
 ! A6    A(3,2,18)             121.1501         calculate D2E/DX2 analytically  !
 ! A7    A(1,4,9)              108.0304         calculate D2E/DX2 analytically  !
 ! A8    A(1,4,12)             117.132          calculate D2E/DX2 analytically  !
 ! A9    A(1,4,13)             122.5666         calculate D2E/DX2 analytically  !
 ! A10   A(9,4,12)              95.5074         calculate D2E/DX2 analytically  !
 ! A11   A(9,4,13)              99.187          calculate D2E/DX2 analytically  !
 ! A12   A(12,4,13)            109.0604         calculate D2E/DX2 analytically  !
 ! A13   A(6,5,7)              109.0896         calculate D2E/DX2 analytically  !
 ! A14   A(6,5,8)              108.9576         calculate D2E/DX2 analytically  !
 ! A15   A(6,5,9)              108.2862         calculate D2E/DX2 analytically  !
 ! A16   A(7,5,8)              109.2467         calculate D2E/DX2 analytically  !
 ! A17   A(7,5,9)              109.5899         calculate D2E/DX2 analytically  !
 ! A18   A(8,5,9)              111.6294         calculate D2E/DX2 analytically  !
 ! A19   A(4,9,5)              110.7638         calculate D2E/DX2 analytically  !
 ! A20   A(4,9,10)             104.1828         calculate D2E/DX2 analytically  !
 ! A21   A(4,9,11)             109.6438         calculate D2E/DX2 analytically  !
 ! A22   A(5,9,10)             111.3578         calculate D2E/DX2 analytically  !
 ! A23   A(5,9,11)             112.6045         calculate D2E/DX2 analytically  !
 ! A24   A(10,9,11)            107.9177         calculate D2E/DX2 analytically  !
 ! A25   A(4,13,14)            110.6055         calculate D2E/DX2 analytically  !
 ! A26   A(4,13,15)            109.4187         calculate D2E/DX2 analytically  !
 ! A27   A(4,13,16)            110.1207         calculate D2E/DX2 analytically  !
 ! A28   A(14,13,15)           107.5852         calculate D2E/DX2 analytically  !
 ! A29   A(14,13,16)           110.2249         calculate D2E/DX2 analytically  !
 ! A30   A(15,13,16)           108.8275         calculate D2E/DX2 analytically  !
 ! A31   A(2,18,19)            129.3112         calculate D2E/DX2 analytically  !
 ! A32   A(2,18,25)            116.1585         calculate D2E/DX2 analytically  !
 ! A33   A(19,18,25)           114.4885         calculate D2E/DX2 analytically  !
 ! A34   A(18,19,20)           116.499          calculate D2E/DX2 analytically  !
 ! A35   A(18,19,24)           124.7242         calculate D2E/DX2 analytically  !
 ! A36   A(20,19,24)           118.7734         calculate D2E/DX2 analytically  !
 ! A37   A(19,20,21)           120.8348         calculate D2E/DX2 analytically  !
 ! A38   A(19,20,26)           119.4986         calculate D2E/DX2 analytically  !
 ! A39   A(21,20,26)           119.6666         calculate D2E/DX2 analytically  !
 ! A40   A(20,21,22)           120.4114         calculate D2E/DX2 analytically  !
 ! A41   A(20,21,27)           119.3165         calculate D2E/DX2 analytically  !
 ! A42   A(22,21,27)           120.272          calculate D2E/DX2 analytically  !
 ! A43   A(21,22,23)           118.863          calculate D2E/DX2 analytically  !
 ! A44   A(21,22,28)           120.5208         calculate D2E/DX2 analytically  !
 ! A45   A(23,22,28)           120.6162         calculate D2E/DX2 analytically  !
 ! A46   A(22,23,24)           121.4121         calculate D2E/DX2 analytically  !
 ! A47   A(22,23,29)           119.8773         calculate D2E/DX2 analytically  !
 ! A48   A(24,23,29)           118.7105         calculate D2E/DX2 analytically  !
 ! A49   A(19,24,23)           119.7046         calculate D2E/DX2 analytically  !
 ! A50   A(19,24,30)           119.6398         calculate D2E/DX2 analytically  !
 ! A51   A(23,24,30)           120.6556         calculate D2E/DX2 analytically  !
 ! D1    D(4,1,2,3)             -8.5641         calculate D2E/DX2 analytically  !
 ! D2    D(4,1,2,18)           172.4962         calculate D2E/DX2 analytically  !
 ! D3    D(17,1,2,3)          -179.9612         calculate D2E/DX2 analytically  !
 ! D4    D(17,1,2,18)            1.099          calculate D2E/DX2 analytically  !
 ! D5    D(2,1,4,9)           -103.9584         calculate D2E/DX2 analytically  !
 ! D6    D(2,1,4,12)           149.7689         calculate D2E/DX2 analytically  !
 ! D7    D(2,1,4,13)            10.0663         calculate D2E/DX2 analytically  !
 ! D8    D(17,1,4,9)            67.5487         calculate D2E/DX2 analytically  !
 ! D9    D(17,1,4,12)          -38.7241         calculate D2E/DX2 analytically  !
 ! D10   D(17,1,4,13)         -178.4266         calculate D2E/DX2 analytically  !
 ! D11   D(1,2,18,19)          177.504          calculate D2E/DX2 analytically  !
 ! D12   D(1,2,18,25)            0.0099         calculate D2E/DX2 analytically  !
 ! D13   D(3,2,18,19)           -1.4509         calculate D2E/DX2 analytically  !
 ! D14   D(3,2,18,25)         -178.9449         calculate D2E/DX2 analytically  !
 ! D15   D(1,4,9,5)             52.4926         calculate D2E/DX2 analytically  !
 ! D16   D(1,4,9,10)           -67.3454         calculate D2E/DX2 analytically  !
 ! D17   D(1,4,9,11)           177.3685         calculate D2E/DX2 analytically  !
 ! D18   D(12,4,9,5)           173.37           calculate D2E/DX2 analytically  !
 ! D19   D(12,4,9,10)           53.532          calculate D2E/DX2 analytically  !
 ! D20   D(12,4,9,11)          -61.7541         calculate D2E/DX2 analytically  !
 ! D21   D(13,4,9,5)           -76.2688         calculate D2E/DX2 analytically  !
 ! D22   D(13,4,9,10)          163.8932         calculate D2E/DX2 analytically  !
 ! D23   D(13,4,9,11)           48.6071         calculate D2E/DX2 analytically  !
 ! D24   D(1,4,13,14)          -53.0141         calculate D2E/DX2 analytically  !
 ! D25   D(1,4,13,15)           65.3313         calculate D2E/DX2 analytically  !
 ! D26   D(1,4,13,16)         -175.0928         calculate D2E/DX2 analytically  !
 ! D27   D(9,4,13,14)           65.3675         calculate D2E/DX2 analytically  !
 ! D28   D(9,4,13,15)         -176.2872         calculate D2E/DX2 analytically  !
 ! D29   D(9,4,13,16)          -56.7112         calculate D2E/DX2 analytically  !
 ! D30   D(12,4,13,14)         164.5012         calculate D2E/DX2 analytically  !
 ! D31   D(12,4,13,15)         -77.1534         calculate D2E/DX2 analytically  !
 ! D32   D(12,4,13,16)          42.4225         calculate D2E/DX2 analytically  !
 ! D33   D(6,5,9,4)            -41.9954         calculate D2E/DX2 analytically  !
 ! D34   D(6,5,9,10)            73.448          calculate D2E/DX2 analytically  !
 ! D35   D(6,5,9,11)          -165.177          calculate D2E/DX2 analytically  !
 ! D36   D(7,5,9,4)             76.8995         calculate D2E/DX2 analytically  !
 ! D37   D(7,5,9,10)          -167.6571         calculate D2E/DX2 analytically  !
 ! D38   D(7,5,9,11)           -46.2821         calculate D2E/DX2 analytically  !
 ! D39   D(8,5,9,4)           -161.9354         calculate D2E/DX2 analytically  !
 ! D40   D(8,5,9,10)           -46.492          calculate D2E/DX2 analytically  !
 ! D41   D(8,5,9,11)            74.883          calculate D2E/DX2 analytically  !
 ! D42   D(2,18,19,20)        -173.9732         calculate D2E/DX2 analytically  !
 ! D43   D(2,18,19,24)           6.6953         calculate D2E/DX2 analytically  !
 ! D44   D(25,18,19,20)          3.5552         calculate D2E/DX2 analytically  !
 ! D45   D(25,18,19,24)       -175.7763         calculate D2E/DX2 analytically  !
 ! D46   D(18,19,20,21)       -179.52           calculate D2E/DX2 analytically  !
 ! D47   D(18,19,20,26)          0.5143         calculate D2E/DX2 analytically  !
 ! D48   D(24,19,20,21)         -0.1468         calculate D2E/DX2 analytically  !
 ! D49   D(24,19,20,26)        179.8874         calculate D2E/DX2 analytically  !
 ! D50   D(18,19,24,23)        179.603          calculate D2E/DX2 analytically  !
 ! D51   D(18,19,24,30)         -0.3192         calculate D2E/DX2 analytically  !
 ! D52   D(20,19,24,23)          0.2856         calculate D2E/DX2 analytically  !
 ! D53   D(20,19,24,30)       -179.6366         calculate D2E/DX2 analytically  !
 ! D54   D(19,20,21,22)         -0.1032         calculate D2E/DX2 analytically  !
 ! D55   D(19,20,21,27)       -179.9979         calculate D2E/DX2 analytically  !
 ! D56   D(26,20,21,22)        179.8624         calculate D2E/DX2 analytically  !
 ! D57   D(26,20,21,27)         -0.0322         calculate D2E/DX2 analytically  !
 ! D58   D(20,21,22,23)          0.2107         calculate D2E/DX2 analytically  !
 ! D59   D(20,21,22,28)       -179.8753         calculate D2E/DX2 analytically  !
 ! D60   D(27,21,22,23)       -179.8957         calculate D2E/DX2 analytically  !
 ! D61   D(27,21,22,28)          0.0184         calculate D2E/DX2 analytically  !
 ! D62   D(21,22,23,24)         -0.069          calculate D2E/DX2 analytically  !
 ! D63   D(21,22,23,29)        179.7918         calculate D2E/DX2 analytically  !
 ! D64   D(28,22,23,24)       -179.9829         calculate D2E/DX2 analytically  !
 ! D65   D(28,22,23,29)         -0.1222         calculate D2E/DX2 analytically  !
 ! D66   D(22,23,24,19)         -0.1811         calculate D2E/DX2 analytically  !
 ! D67   D(22,23,24,30)        179.7403         calculate D2E/DX2 analytically  !
 ! D68   D(29,23,24,19)        179.9566         calculate D2E/DX2 analytically  !
 ! D69   D(29,23,24,30)         -0.122          calculate D2E/DX2 analytically  !
 --------------------------------------------------------------------------------
 Trust Radius=5.00D-02 FncErr=1.00D-07 GrdErr=1.00D-06 EigMax=2.50D+02 EigMin=1.00D-04
 Number of steps in this run=     70 maximum allowed number of steps=    180.
 Search for a saddle point of order  1.
 GradGradGradGradGradGradGradGradGradGradGradGradGradGradGradGradGradGrad

                          Input orientation:                          
 ---------------------------------------------------------------------
 Center     Atomic      Atomic             Coordinates (Angstroms)
 Number     Number       Type             X           Y           Z
 ---------------------------------------------------------------------
      1          6           0        0.629380   -0.036670   -0.126410
      2          6           0       -0.713340   -0.597580   -0.234510
      3          8           0       -0.915410   -1.777710   -0.518360
      4          6           0        1.791510   -0.794330   -0.160000
      5          6           0        1.439370   -1.414510    2.573600
      6          1           0        0.504890   -0.909670    2.321140
      7          1           0        1.310410   -2.486480    2.445090
      8          1           0        1.685230   -1.204530    3.614040
      9          7           0        2.476290   -0.935510    1.669660
     10          1           0        2.760910    0.009200    1.901900
     11          1           0        3.303030   -1.521600    1.679740
     12         35           0        3.400630    0.063390   -0.898170
     13          6           0        1.797360   -2.251740   -0.531720
     14          1           0        1.085550   -2.803460    0.074380
     15          1           0        1.497310   -2.361060   -1.572940
     16          1           0        2.796150   -2.665320   -0.408860
     17         35           0        0.810880    1.821530    0.324650
     18          7           0       -1.757450    0.272080   -0.023150
     19          6           0       -3.134160    0.040050   -0.104690
     20          6           0       -3.965070    1.156760    0.038550
     21          6           0       -5.340170    1.028440   -0.016990
     22          6           0       -5.922600   -0.216260   -0.218920
     23          6           0       -5.102150   -1.323740   -0.358730
     24          6           0       -3.719110   -1.211650   -0.302370
     25          1           0       -1.506680    1.223010    0.188310
     26          1           0       -3.523230    2.134440    0.194460
     27          1           0       -5.959880    1.909090    0.096880
     28          1           0       -6.998950   -0.318460   -0.264710
     29          1           0       -5.538990   -2.302810   -0.513480
     30          1           0       -3.093020   -2.081280   -0.408430
 ---------------------------------------------------------------------
                    Distance matrix (angstroms):
                    1          2          3          4          5
     1  C    0.000000
     2  C    1.459179   0.000000
     3  O    2.360343   1.230492   0.000000
     4  C    1.387704   2.513670   2.902219   0.000000
     5  C    3.137608   3.631393   3.903475   2.825101   0.000000
     6  H    2.601563   2.848303   3.291429   2.797275   1.091720
     7  H    3.616349   3.852760   3.773416   3.143457   1.087320
     8  H    4.058286   4.575245   4.916156   3.797754   1.089520
     9  N    2.728527   3.730121   4.123149   1.958701   1.456623
    10  H    2.942714   4.123450   4.750372   2.415953   2.055383
    11  H    3.551844   4.544160   4.763662   2.489630   2.069706
    12  Br   2.878446   4.219251   4.707665   1.967192   4.252519
    13  C    2.536728   3.021290   2.753907   1.504079   3.236066
    14  H    2.811323   2.863097   2.325370   2.142409   2.881054
    15  H    2.872027   3.128615   2.696971   2.130163   4.253599
    16  H    3.418256   4.077066   3.817790   2.138185   3.507199
    17  Br   1.920756   2.913417   4.079862   2.835356   3.990580
    18  N    2.408931   1.375190   2.270661   3.708244   4.450545
    19  C    3.764385   2.506750   2.897969   4.996146   5.496013
    20  C    4.749785   3.704864   4.268687   6.081479   6.499683
    21  C    6.064813   4.909054   5.263492   7.362323   7.657762
    22  C    6.555094   5.223221   5.253546   7.735963   7.964457
    23  C    5.878857   4.450213   4.214304   6.916814   7.169260
    24  C    4.507871   3.068606   2.868416   5.528233   5.909507
    25  H    2.499719   2.030447   3.138997   3.881886   4.617936
    26  H    4.696897   3.942516   4.755392   6.078634   6.548492
    27  H    6.874168   5.824036   6.278351   8.213313   8.481118
    28  H    7.634786   6.291877   6.261247   8.803954   8.970093
    29  H    6.582857   5.125674   4.653305   7.492442   7.682229
    30  H    4.256316   2.809714   2.201414   5.057330   5.466228
                    6          7          8          9         10
     6  H    0.000000
     7  H    1.774981   0.000000
     8  H    1.775313   1.774917   0.000000
     9  N    2.076418   2.089516   2.116308   0.000000
    10  H    2.471783   2.937248   2.358315   1.013618   0.000000
    11  H    2.935207   2.342496   2.541521   1.013460   1.639084
    12  Br   4.438030   4.695556   4.991018   2.906193   2.872729
    13  C    3.407410   3.025495   4.277446   2.653202   3.458726
    14  H    2.995252   2.402354   3.930062   2.822820   3.749362
    15  H    4.272621   4.024329   5.317672   3.674922   4.391962
    16  H    3.973044   3.222489   4.421739   2.723013   3.534673
    17  Br   3.396919   4.827499   4.554296   3.490546   3.094329
    18  N    3.465604   4.807663   5.221262   4.716825   4.918384
    19  C    4.475411   5.713049   6.213248   5.964661   6.227295
    20  C    5.427789   6.848016   7.091242   6.966293   7.073031
    21  C    6.586945   7.914968   8.217468   8.234011   8.387400
    22  C    6.945887   8.035377   8.575974   8.638600   8.941591
    23  C    6.228327   7.094667   7.865471   7.854797   8.289444
    24  C    4.981583   5.871099   6.674220   6.507545   6.952693
    25  H    3.625424   5.175845   5.274170   4.766304   4.756264
    26  H    5.478606   7.055658   7.068968   6.898916   6.849994
    27  H    7.394998   8.814320   8.972890   9.040705   9.106034
    28  H    7.958880   9.004931   9.552215   9.690341  10.002821
    29  H    6.819413   7.463320   8.392377   8.419045   8.948061
    30  H    4.665638   5.262790   6.307189   6.053797   6.631457
                   11         12         13         14         15
    11  H    0.000000
    12  Br   3.027761   0.000000
    13  C    2.773211   2.839822   0.000000
    14  H    3.022840   3.811073   1.085553   0.000000
    15  H    3.813823   3.155297   1.089091   1.754687   0.000000
    16  H    2.434599   2.837372   1.087991   1.782907   1.770492
    17  Br   4.384472   3.360528   4.277621   4.639893   4.643931
    18  N    5.632547   5.235934   4.389190   4.189404   4.464162
    19  C    6.860055   6.582829   5.454773   5.091519   5.419557
    20  C    7.917853   7.505094   6.719277   6.418208   6.693994
    21  C    9.169869   8.837951   7.872030   7.482091   7.788506
    22  C    9.508999   9.352123   7.989919   7.476215   7.841467
    23  C    8.651102   8.632056   6.963788   6.376895   6.789935
    24  C    7.303101   7.257507   5.618348   5.075486   5.490585
    25  H    5.735029   5.158183   4.848609   4.790104   4.997151
    26  H    7.884828   7.309099   6.933584   6.755600   6.966997
    27  H   10.003828   9.592491   8.825102   8.476244   8.753980
    28  H   10.552688  10.425850   9.010213   8.464594   8.835729
    29  H    9.143403   9.255468   7.336550   6.669390   7.115853
    30  H    6.751530   6.856161   4.894903   4.267915   4.743995
                   16         17         18         19         20
    16  H    0.000000
    17  Br   4.960963   0.000000
    18  N    5.432528   3.019616   0.000000
    19  C    6.525345   4.349867   1.398505   0.000000
    20  C    7.779625   4.830473   2.379086   1.399275   0.000000
    21  C    8.944111   6.211371   3.661694   2.418902   1.382191
    22  C    9.058177   7.056048   4.198247   2.802524   2.404870
    23  C    8.011585   6.732285   3.721058   2.407788   2.757474
    24  C    6.676310   5.487636   2.475385   1.395707   2.405429
    25  H    5.830100   2.397478   1.005917   2.033208   2.463838
    26  H    7.958408   4.347341   2.575600   2.151124   1.084153
    27  H    9.891868   6.775156   4.511610   3.393911   2.132761
    28  H   10.073357   8.119135   5.280190   3.884680   3.387133
    29  H    8.343675   7.617972   4.601144   3.382205   3.840649
    30  H    5.918059   5.568641   2.733220   2.143360   3.383070
                   21         22         23         24         25
    21  C    0.000000
    22  C    1.388985   0.000000
    23  C    2.388763   1.385351   0.000000
    24  C    2.779799   2.419325   1.388719   0.000000
    25  H    3.843911   4.662369   4.439887   3.326136   0.000000
    26  H    2.137573   3.384324   3.841616   3.388440   2.212966
    27  H    1.082844   2.149007   3.375570   3.862573   4.506668
    28  H    2.151059   1.082160   2.148785   3.399494   5.722446
    29  H    3.373908   2.141871   1.083215   2.132407   5.402170
    30  H    3.856587   3.394221   2.147776   1.076798   3.713611
                   26         27         28         29         30
    26  H    0.000000
    27  H    2.448993   0.000000
    28  H    4.278806   2.484430   0.000000
    29  H    4.924800   4.276656   2.476089   0.000000
    30  H    4.280286   4.939360   4.287713   2.458227   0.000000
 Stoichiometry    C11H14Br2N2O
 Framework group  C1[X(C11H14Br2N2O)]
 Deg. of freedom    84
 Full point group                 C1      NOp   1
 Largest Abelian subgroup         C1      NOp   1
 Largest concise Abelian subgroup C1      NOp   1
                         Standard orientation:                         
 ---------------------------------------------------------------------
 Center     Atomic      Atomic             Coordinates (Angstroms)
 Number     Number       Type             X           Y           Z
 ---------------------------------------------------------------------
      1          6           0       -0.629378    0.036672   -0.126409
      2          6           0        0.713342    0.597581   -0.234509
      3          8           0        0.915413    1.777711   -0.518359
      4          6           0       -1.791508    0.794332   -0.159999
      5          6           0       -1.439367    1.414512    2.573601
      6          1           0       -0.504888    0.909672    2.321141
      7          1           0       -1.310407    2.486482    2.445091
      8          1           0       -1.685227    1.204532    3.614041
      9          7           0       -2.476288    0.935513    1.669661
     10          1           0       -2.760908   -0.009197    1.901901
     11          1           0       -3.303027    1.521603    1.679741
     12         35           0       -3.400628   -0.063387   -0.898169
     13          6           0       -1.797357    2.251742   -0.531719
     14          1           0       -1.085546    2.803462    0.074381
     15          1           0       -1.497307    2.361062   -1.572939
     16          1           0       -2.796146    2.665323   -0.408859
     17         35           0       -0.810879   -1.821528    0.324651
     18          7           0        1.757452   -0.272080   -0.023149
     19          6           0        3.134162   -0.040051   -0.104689
     20          6           0        3.965071   -1.156761    0.038551
     21          6           0        5.340171   -1.028442   -0.016989
     22          6           0        5.922602    0.216257   -0.218919
     23          6           0        5.102153    1.323738   -0.358729
     24          6           0        3.719113    1.211649   -0.302369
     25          1           0        1.506681   -1.223010    0.188311
     26          1           0        3.523230   -2.134441    0.194461
     27          1           0        5.959880   -1.909093    0.096881
     28          1           0        6.998952    0.318456   -0.264709
     29          1           0        5.538993    2.302807   -0.513479
     30          1           0        3.093023    2.081279   -0.408429
 ---------------------------------------------------------------------
 Rotational constants (GHZ):           0.6525238           0.1592818           0.1453421
 Standard basis: def2TZVP (5D, 7F)
 There are   698 symmetry adapted cartesian basis functions of A   symmetry.
 There are   614 symmetry adapted basis functions of A   symmetry.
   614 basis functions,  1054 primitive gaussians,   698 cartesian basis functions
    86 alpha electrons       86 beta electrons
       nuclear repulsion energy      1930.4080416769 Hartrees.
 NAtoms=   30 NActive=   30 NUniq=   30 SFac= 1.00D+00 NAtFMM=   60 NAOKFM=F Big=F
 Integral buffers will be    131072 words long.
 Raffenetti 2 integral format.
 Two-electron integral symmetry is turned on.
 Nuclear repulsion after empirical dispersion term =     1930.3856566898 Hartrees.
 Force inversion solution in PCM.
 ------------------------------------------------------------------------------
 Polarizable Continuum Model (PCM)
 =================================
 Model                : PCM.
 Atomic radii         : UFF (Universal Force Field).
 Polarization charges : Total charges.
 Charge compensation  : None.
 Solution method      : Matrix inversion.
 Cavity type          : Scaled VdW (van der Waals Surface) (Alpha=1.100).
 Cavity algorithm     : GePol (No added spheres)
                        Default sphere list used, NSphG=   30.
                        Lebedev-Laikov grids with approx.  5.0 points / Ang**2.
                        Smoothing algorithm: York/Karplus (Gamma=1.0000).
                        Polarization charges: spherical gaussians, with
                                              point-specific exponents (IZeta= 3).
                        Self-potential: point-specific (ISelfS= 7).
                        Self-field    : sphere-specific E.n sum rule (ISelfD= 2).
 1st derivatives      : Analytical E(r).r(x)/FMM algorithm (CHGder, D1EAlg=3).
                        Cavity 1st derivative terms included.
 2nd derivatives      : Analytical E(r).r(xy)/FMM algorithm (CHGder, D2EAlg=3).
                        Cavity 2nd derivative terms included.
 Solvent              : Water, Eps=  78.355300 Eps(inf)=   1.777849
 ------------------------------------------------------------------------------
 One-electron integrals computed using PRISM.
   1 Symmetry operations used in ECPInt.
 ECPInt:  NShTT=   29403 NPrTT=   98385 LenC2=   25765 LenP2D=   60334.
 LDataN:  DoStor=T MaxTD1= 6 Len=  172
 NBasis=   614 RedAO= T EigKep=  8.01D-06  NBF=   614
 NBsUse=   614 1.00D-06 EigRej= -1.00D+00 NBFU=   614
 ExpMin= 9.52D-02 ExpMax= 5.65D+05 ExpMxC= 5.46D+03 IAcc=3 IRadAn=         5 AccDes= 0.00D+00
 Harris functional with IExCor= 4639 and IRadAn=       5 diagonalized for initial guess.
 HarFok:  IExCor= 4639 AccDes= 0.00D+00 IRadAn=         5 IDoV= 1 UseB2=F ITyADJ=14
 ICtDFT=  3500011 ScaDFX=  1.000000  1.000000  1.000000  1.000000
 FoFCou: FMM=F IPFlag=           0 FMFlag=      100000 FMFlg1=           0
         NFxFlg=           0 DoJE=T BraDBF=F KetDBF=T FulRan=T
         wScrn=  0.000000 ICntrl=       500 IOpCl=  0 I1Cent=   200000004 NGrid=           0
         NMat0=    1 NMatS0=      1 NMatT0=    0 NMatD0=    1 NMtDS0=    0 NMtDT0=    0
 Petite list used in FoFCou.
 Requested convergence on RMS density matrix=1.00D-08 within 128 cycles.
 Requested convergence on MAX density matrix=1.00D-06.
 Requested convergence on             energy=1.00D-06.
 No special actions if energy rises.
 Inv3:  Mode=1 IEnd=    17700123.
 Iteration    1 A*A^-1 deviation from unit magnitude is 6.22D-15 for   2429.
 Iteration    1 A*A^-1 deviation from orthogonality  is 2.58D-15 for   2418   2342.
 Iteration    1 A^-1*A deviation from unit magnitude is 6.00D-15 for   2429.
 Iteration    1 A^-1*A deviation from orthogonality  is 2.42D-15 for   2418   2342.
 Error on total polarization charges =  0.01861
 SCF Done:  E(RwB97XD) =  -5760.76280316     A.U. after   15 cycles
            NFock= 15  Conv=0.61D-08     -V/T= 2.0018
 DoSCS=F DFT=T ScalE2(SS,OS)=  1.000000  1.000000
 Range of M.O.s used for correlation:     1   614
 NBasis=   614 NAE=    86 NBE=    86 NFC=     0 NFV=     0
 NROrb=    614 NOA=    86 NOB=    86 NVA=   528 NVB=   528

 **** Warning!!: The largest alpha MO coefficient is  0.61742511D+02

   1 Symmetry operations used in ECPInt.
 ECPInt:  NShTT=   29403 NPrTT=   98385 LenC2=   25765 LenP2D=   60334.
 LDataN:  DoStor=T MaxTD1= 7 Len=  274
 Symmetrizing basis deriv contribution to polar:
 IMax=3 JMax=2 DiffMx= 0.00D+00
 G2DrvN: will do    31 centers at a time, making    1 passes.
 Calling FoFCou, ICntrl=  3107 FMM=F I1Cent=   0 AccDes= 0.00D+00.
 NEqPCM:  Using equilibrium solvation (IEInf=0, Eps=  78.3553, EpsInf=   1.7778)
 G2PCM: DoFxE=T DoFxN=T DoGrad=T DoDP/DQ/DG/TGxP=FFFF NFrqRd=   0 IEInf=0 SqF1=F DoCFld=F IF1Alg=4.
 End of G2Drv F.D. properties file   721 does not exist.
 End of G2Drv F.D. properties file   722 does not exist.
 End of G2Drv F.D. properties file   788 does not exist.
          IDoAtm=111111111111111111111111111111
 NEqPCM:  Using equilibrium solvation (IEInf=0, Eps=  78.3553, EpsInf=   1.7778)
          Differentiating once with respect to nuclear coordinates.
 CalDSu exits because no D1Ps are significant.
          There are    93 degrees of freedom in the 1st order CPHF.  IDoFFX=6 NUNeed=     0.
     87 vectors produced by pass  0 Test12= 4.88D-14 1.08D-09 XBig12= 1.38D-01 1.18D-01.
 AX will form    87 AO Fock derivatives at one time.
     87 vectors produced by pass  1 Test12= 4.88D-14 1.08D-09 XBig12= 3.97D-02 4.67D-02.
     87 vectors produced by pass  2 Test12= 4.88D-14 1.08D-09 XBig12= 1.37D-03 3.73D-03.
     87 vectors produced by pass  3 Test12= 4.88D-14 1.08D-09 XBig12= 2.43D-05 4.91D-04.
     87 vectors produced by pass  4 Test12= 4.88D-14 1.08D-09 XBig12= 2.79D-07 5.75D-05.
     87 vectors produced by pass  5 Test12= 4.88D-14 1.08D-09 XBig12= 2.49D-09 6.12D-06.
     87 vectors produced by pass  6 Test12= 4.88D-14 1.08D-09 XBig12= 1.92D-11 5.32D-07.
     45 vectors produced by pass  7 Test12= 4.88D-14 1.08D-09 XBig12= 1.36D-13 3.69D-08.
     13 vectors produced by pass  8 Test12= 4.88D-14 1.08D-09 XBig12= 1.06D-14 1.34D-08.
      4 vectors produced by pass  9 Test12= 4.88D-14 1.08D-09 XBig12= 3.27D-15 5.05D-09.
      3 vectors produced by pass 10 Test12= 4.88D-14 1.08D-09 XBig12= 8.42D-16 2.64D-09.
      3 vectors produced by pass 11 Test12= 4.88D-14 1.08D-09 XBig12= 4.01D-16 2.07D-09.
      1 vectors produced by pass 12 Test12= 4.88D-14 1.08D-09 XBig12= 9.93D-17 1.13D-09.
 InvSVY:  IOpt=1 It=  1 EMax= 4.16D-16
 Solved reduced A of dimension   678 with    93 vectors.
 End of Minotr F.D. properties file   721 does not exist.
 End of Minotr F.D. properties file   722 does not exist.
 End of Minotr F.D. properties file   788 does not exist.

 **********************************************************************

            Population analysis using the SCF density.

 **********************************************************************

 Orbital symmetries:
       Occupied  (A) (A) (A) (A) (A) (A) (A) (A) (A) (A) (A) (A)
                 (A) (A) (A) (A) (A) (A) (A) (A) (A) (A) (A) (A)
                 (A) (A) (A) (A) (A) (A) (A) (A) (A) (A) (A) (A)
                 (A) (A) (A) (A) (A) (A) (A) (A) (A) (A) (A) (A)
                 (A) (A) (A) (A) (A) (A) (A) (A) (A) (A) (A) (A)
                 (A) (A) (A) (A) (A) (A) (A) (A) (A) (A) (A) (A)
                 (A) (A) (A) (A) (A) (A) (A) (A) (A) (A) (A) (A)
                 (A) (A)
       Virtual   (A) (A) (A) (A) (A) (A) (A) (A) (A) (A) (A) (A)
                 (A) (A) (A) (A) (A) (A) (A) (A) (A) (A) (A) (A)
                 (A) (A) (A) (A) (A) (A) (A) (A) (A) (A) (A) (A)
                 (A) (A) (A) (A) (A) (A) (A) (A) (A) (A) (A) (A)
                 (A) (A) (A) (A) (A) (A) (A) (A) (A) (A) (A) (A)
                 (A) (A) (A) (A) (A) (A) (A) (A) (A) (A) (A) (A)
                 (A) (A) (A) (A) (A) (A) (A) (A) (A) (A) (A) (A)
                 (A) (A) (A) (A) (A) (A) (A) (A) (A) (A) (A) (A)
                 (A) (A) (A) (A) (A) (A) (A) (A) (A) (A) (A) (A)
                 (A) (A) (A) (A) (A) (A) (A) (A) (A) (A) (A) (A)
                 (A) (A) (A) (A) (A) (A) (A) (A) (A) (A) (A) (A)
                 (A) (A) (A) (A) (A) (A) (A) (A) (A) (A) (A) (A)
                 (A) (A) (A) (A) (A) (A) (A) (A) (A) (A) (A) (A)
                 (A) (A) (A) (A) (A) (A) (A) (A) (A) (A) (A) (A)
                 (A) (A) (A) (A) (A) (A) (A) (A) (A) (A) (A) (A)
                 (A) (A) (A) (A) (A) (A) (A) (A) (A) (A) (A) (A)
                 (A) (A) (A) (A) (A) (A) (A) (A) (A) (A) (A) (A)
                 (A) (A) (A) (A) (A) (A) (A) (A) (A) (A) (A) (A)
                 (A) (A) (A) (A) (A) (A) (A) (A) (A) (A) (A) (A)
                 (A) (A) (A) (A) (A) (A) (A) (A) (A) (A) (A) (A)
                 (A) (A) (A) (A) (A) (A) (A) (A) (A) (A) (A) (A)
                 (A) (A) (A) (A) (A) (A) (A) (A) (A) (A) (A) (A)
                 (A) (A) (A) (A) (A) (A) (A) (A) (A) (A) (A) (A)
                 (A) (A) (A) (A) (A) (A) (A) (A) (A) (A) (A) (A)
                 (A) (A) (A) (A) (A) (A) (A) (A) (A) (A) (A) (A)
                 (A) (A) (A) (A) (A) (A) (A) (A) (A) (A) (A) (A)
                 (A) (A) (A) (A) (A) (A) (A) (A) (A) (A) (A) (A)
                 (A) (A) (A) (A) (A) (A) (A) (A) (A) (A) (A) (A)
                 (A) (A) (A) (A) (A) (A) (A) (A) (A) (A) (A) (A)
                 (A) (A) (A) (A) (A) (A) (A) (A) (A) (A) (A) (A)
                 (A) (A) (A) (A) (A) (A) (A) (A) (A) (A) (A) (A)
                 (A) (A) (A) (A) (A) (A) (A) (A) (A) (A) (A) (A)
                 (A) (A) (A) (A) (A) (A) (A) (A) (A) (A) (A) (A)
                 (A) (A) (A) (A) (A) (A) (A) (A) (A) (A) (A) (A)
                 (A) (A) (A) (A) (A) (A) (A) (A) (A) (A) (A) (A)
                 (A) (A) (A) (A) (A) (A) (A) (A) (A) (A) (A) (A)
                 (A) (A) (A) (A) (A) (A) (A) (A) (A) (A) (A) (A)
                 (A) (A) (A) (A) (A) (A) (A) (A) (A) (A) (A) (A)
                 (A) (A) (A) (A) (A) (A) (A) (A) (A) (A) (A) (A)
                 (A) (A) (A) (A) (A) (A) (A) (A) (A) (A) (A) (A)
                 (A) (A) (A) (A) (A) (A) (A) (A) (A) (A) (A) (A)
                 (A) (A) (A) (A) (A) (A) (A) (A) (A) (A) (A) (A)
                 (A) (A) (A) (A) (A) (A) (A) (A) (A) (A) (A) (A)
                 (A) (A) (A) (A) (A) (A) (A) (A) (A) (A) (A) (A)
 The electronic state is 1-A.
 Alpha  occ. eigenvalues -- -483.13292-483.13065 -62.68117 -62.67922 -56.47223
 Alpha  occ. eigenvalues --  -56.47032 -56.46889 -56.46879 -56.46688 -56.46671
 Alpha  occ. eigenvalues --  -19.20974 -14.48827 -14.46507 -10.40666 -10.39821
 Alpha  occ. eigenvalues --  -10.33931 -10.31883 -10.31874 -10.29075 -10.28918
 Alpha  occ. eigenvalues --  -10.28904 -10.28896 -10.28296 -10.28249  -8.82224
 Alpha  occ. eigenvalues --   -8.82034  -6.64333  -6.64166  -6.63269  -6.63236
 Alpha  occ. eigenvalues --   -6.63077  -6.63023  -2.74729  -2.74552  -2.74424
 Alpha  occ. eigenvalues --   -2.74395  -2.74253  -2.74211  -2.73536  -2.73534
 Alpha  occ. eigenvalues --   -2.73328  -2.73328  -1.14290  -1.04421  -1.04313
 Alpha  occ. eigenvalues --   -0.96072  -0.95076  -0.89749  -0.85177  -0.85042
 Alpha  occ. eigenvalues --   -0.84497  -0.79343  -0.79016  -0.74079  -0.71554
 Alpha  occ. eigenvalues --   -0.67860  -0.64640  -0.63495  -0.62191  -0.58617
 Alpha  occ. eigenvalues --   -0.57980  -0.57132  -0.55729  -0.54040  -0.53506
 Alpha  occ. eigenvalues --   -0.52361  -0.52237  -0.51547  -0.50216  -0.50034
 Alpha  occ. eigenvalues --   -0.48495  -0.46810  -0.46008  -0.45655  -0.44735
 Alpha  occ. eigenvalues --   -0.43949  -0.42870  -0.40279  -0.39744  -0.39417
 Alpha  occ. eigenvalues --   -0.37292  -0.36325  -0.33895  -0.33666  -0.30531
 Alpha  occ. eigenvalues --   -0.27779
 Alpha virt. eigenvalues --    0.02320   0.04155   0.05364   0.07969   0.09301
 Alpha virt. eigenvalues --    0.10063   0.12672   0.13927   0.13989   0.15023
 Alpha virt. eigenvalues --    0.15235   0.16727   0.16903   0.17801   0.18475
 Alpha virt. eigenvalues --    0.19379   0.19905   0.20202   0.20770   0.21505
 Alpha virt. eigenvalues --    0.21974   0.22577   0.22665   0.23369   0.23809
 Alpha virt. eigenvalues --    0.24815   0.25925   0.26920   0.27438   0.28131
 Alpha virt. eigenvalues --    0.28259   0.28626   0.29431   0.29593   0.30105
 Alpha virt. eigenvalues --    0.30206   0.31208   0.31545   0.32414   0.32745
 Alpha virt. eigenvalues --    0.33163   0.33627   0.34143   0.34261   0.34790
 Alpha virt. eigenvalues --    0.34912   0.35247   0.36093   0.36950   0.37381
 Alpha virt. eigenvalues --    0.38212   0.39632   0.39982   0.40972   0.41052
 Alpha virt. eigenvalues --    0.42022   0.42386   0.42497   0.43822   0.44785
 Alpha virt. eigenvalues --    0.45155   0.45940   0.46626   0.47125   0.47656
 Alpha virt. eigenvalues --    0.48083   0.48752   0.49534   0.49824   0.50220
 Alpha virt. eigenvalues --    0.50249   0.50987   0.51404   0.51987   0.52312
 Alpha virt. eigenvalues --    0.52976   0.53936   0.54133   0.55025   0.55191
 Alpha virt. eigenvalues --    0.55802   0.56424   0.56820   0.57604   0.58014
 Alpha virt. eigenvalues --    0.58158   0.58672   0.59326   0.60304   0.61061
 Alpha virt. eigenvalues --    0.61630   0.62429   0.63275   0.63764   0.65026
 Alpha virt. eigenvalues --    0.65366   0.66100   0.67548   0.68662   0.69203
 Alpha virt. eigenvalues --    0.70462   0.70509   0.71720   0.73076   0.73327
 Alpha virt. eigenvalues --    0.74121   0.74961   0.76264   0.76830   0.78078
 Alpha virt. eigenvalues --    0.79108   0.79397   0.79673   0.81569   0.82274
 Alpha virt. eigenvalues --    0.82445   0.83679   0.84919   0.85924   0.87661
 Alpha virt. eigenvalues --    0.88138   0.89305   0.89987   0.91354   0.91911
 Alpha virt. eigenvalues --    0.92765   0.93445   0.95444   0.96088   0.96635
 Alpha virt. eigenvalues --    0.97098   0.97149   0.98482   0.99959   1.01193
 Alpha virt. eigenvalues --    1.02008   1.03985   1.05451   1.06394   1.07839
 Alpha virt. eigenvalues --    1.08546   1.09451   1.09860   1.10429   1.11185
 Alpha virt. eigenvalues --    1.13183   1.14258   1.15511   1.15779   1.16653
 Alpha virt. eigenvalues --    1.17210   1.17877   1.20635   1.21540   1.23203
 Alpha virt. eigenvalues --    1.23967   1.25207   1.25772   1.27291   1.28309
 Alpha virt. eigenvalues --    1.29851   1.30894   1.30962   1.31615   1.32471
 Alpha virt. eigenvalues --    1.34061   1.34536   1.35541   1.36671   1.37090
 Alpha virt. eigenvalues --    1.38703   1.41062   1.42000   1.42699   1.43232
 Alpha virt. eigenvalues --    1.44921   1.45422   1.45732   1.47583   1.48243
 Alpha virt. eigenvalues --    1.49131   1.49933   1.50049   1.51424   1.52218
 Alpha virt. eigenvalues --    1.53912   1.54347   1.54767   1.56068   1.56735
 Alpha virt. eigenvalues --    1.57328   1.57832   1.58611   1.58720   1.59663
 Alpha virt. eigenvalues --    1.60109   1.60583   1.61720   1.62246   1.62725
 Alpha virt. eigenvalues --    1.63433   1.63514   1.64551   1.65257   1.66083
 Alpha virt. eigenvalues --    1.66639   1.66812   1.68181   1.68864   1.70210
 Alpha virt. eigenvalues --    1.70473   1.71553   1.72024   1.72268   1.72577
 Alpha virt. eigenvalues --    1.73285   1.74113   1.74468   1.74755   1.76158
 Alpha virt. eigenvalues --    1.76369   1.77156   1.77928   1.79438   1.79940
 Alpha virt. eigenvalues --    1.80446   1.80831   1.81536   1.82618   1.84630
 Alpha virt. eigenvalues --    1.85328   1.87350   1.87896   1.88606   1.88973
 Alpha virt. eigenvalues --    1.90578   1.91116   1.91553   1.91789   1.93639
 Alpha virt. eigenvalues --    1.93812   1.94824   1.95304   1.97702   1.98930
 Alpha virt. eigenvalues --    1.99549   2.01054   2.01744   2.02446   2.02881
 Alpha virt. eigenvalues --    2.04962   2.06324   2.06860   2.09814   2.11483
 Alpha virt. eigenvalues --    2.12289   2.14048   2.15062   2.16502   2.17455
 Alpha virt. eigenvalues --    2.18588   2.20370   2.20722   2.21372   2.25052
 Alpha virt. eigenvalues --    2.25215   2.26446   2.26724   2.28352   2.29860
 Alpha virt. eigenvalues --    2.31007   2.33021   2.34124   2.35678   2.36352
 Alpha virt. eigenvalues --    2.37473   2.39246   2.40400   2.41824   2.43313
 Alpha virt. eigenvalues --    2.44200   2.46401   2.47229   2.48855   2.52064
 Alpha virt. eigenvalues --    2.53175   2.54505   2.54916   2.56242   2.58194
 Alpha virt. eigenvalues --    2.58804   2.59338   2.61349   2.62516   2.62812
 Alpha virt. eigenvalues --    2.64374   2.65048   2.66517   2.67045   2.68032
 Alpha virt. eigenvalues --    2.68942   2.69633   2.70639   2.72217   2.73853
 Alpha virt. eigenvalues --    2.74438   2.75438   2.75891   2.76586   2.77206
 Alpha virt. eigenvalues --    2.77572   2.78876   2.81742   2.81966   2.83383
 Alpha virt. eigenvalues --    2.83613   2.84887   2.85719   2.85798   2.86352
 Alpha virt. eigenvalues --    2.87860   2.88642   2.90149   2.90573   2.91415
 Alpha virt. eigenvalues --    2.91963   2.92689   2.93299   2.94666   2.95517
 Alpha virt. eigenvalues --    2.95787   2.97244   2.97818   2.99396   2.99596
 Alpha virt. eigenvalues --    3.02287   3.04785   3.06465   3.07998   3.09177
 Alpha virt. eigenvalues --    3.10356   3.12319   3.12990   3.13654   3.14866
 Alpha virt. eigenvalues --    3.15642   3.17258   3.18319   3.19029   3.20610
 Alpha virt. eigenvalues --    3.21090   3.22323   3.22661   3.22956   3.23862
 Alpha virt. eigenvalues --    3.25284   3.26181   3.27345   3.28108   3.29239
 Alpha virt. eigenvalues --    3.30055   3.30772   3.32196   3.32574   3.33904
 Alpha virt. eigenvalues --    3.34259   3.35640   3.35856   3.36626   3.38612
 Alpha virt. eigenvalues --    3.39902   3.40491   3.40897   3.42879   3.43271
 Alpha virt. eigenvalues --    3.44483   3.45575   3.45796   3.46978   3.47675
 Alpha virt. eigenvalues --    3.48688   3.50219   3.51080   3.51383   3.54218
 Alpha virt. eigenvalues --    3.54968   3.55922   3.56953   3.58064   3.59721
 Alpha virt. eigenvalues --    3.60323   3.60604   3.62219   3.62449   3.63508
 Alpha virt. eigenvalues --    3.64193   3.65412   3.67782   3.71075   3.71393
 Alpha virt. eigenvalues --    3.73139   3.74197   3.75264   3.77102   3.78686
 Alpha virt. eigenvalues --    3.82289   3.83694   3.85714   3.86738   3.87199
 Alpha virt. eigenvalues --    3.88550   3.89390   3.93009   3.96263   3.99587
 Alpha virt. eigenvalues --    4.00353   4.03060   4.06904   4.08481   4.09847
 Alpha virt. eigenvalues --    4.10207   4.12427   4.13982   4.14515   4.15769
 Alpha virt. eigenvalues --    4.16354   4.16981   4.18066   4.19853   4.20167
 Alpha virt. eigenvalues --    4.22191   4.23022   4.23518   4.25402   4.27155
 Alpha virt. eigenvalues --    4.28267   4.28729   4.29745   4.31273   4.32570
 Alpha virt. eigenvalues --    4.32929   4.35560   4.36092   4.38004   4.39760
 Alpha virt. eigenvalues --    4.40353   4.41934   4.43322   4.45632   4.47239
 Alpha virt. eigenvalues --    4.48249   4.49965   4.53101   4.56164   4.57716
 Alpha virt. eigenvalues --    4.59973   4.63069   4.64625   4.67301   4.68251
 Alpha virt. eigenvalues --    4.72661   4.74949   4.77239   4.79064   4.80137
 Alpha virt. eigenvalues --    4.81798   4.85043   4.92890   4.93431   4.94224
 Alpha virt. eigenvalues --    4.96744   4.98099   4.99555   5.00430   5.05631
 Alpha virt. eigenvalues --    5.08086   5.09588   5.11525   5.17127   5.18705
 Alpha virt. eigenvalues --    5.20218   5.21198   5.23147   5.23833   5.25758
 Alpha virt. eigenvalues --    5.29149   5.31405   5.37426   5.37793   5.38974
 Alpha virt. eigenvalues --    5.41688   5.43274   5.45993   5.49602   5.56515
 Alpha virt. eigenvalues --    5.57630   5.67687   5.71710   5.75350   5.79694
 Alpha virt. eigenvalues --    5.87561   5.98883   6.13313   6.20887   6.21057
 Alpha virt. eigenvalues --    6.45351   6.51238   6.74974   6.89705   6.93768
 Alpha virt. eigenvalues --    7.21255   7.29967   7.75634   7.83059  22.23780
 Alpha virt. eigenvalues --   22.49571  22.55731  22.58567  22.72109  22.73778
 Alpha virt. eigenvalues --   22.85921  22.90607  22.96920  23.36878  23.50830
 Alpha virt. eigenvalues --   32.15976  32.82199  44.16370
          Condensed to atoms (all electrons):
               1          2          3          4          5          6
     1  C    6.036367   0.139790  -0.092577   0.265708   0.003024   0.035863
     2  C    0.139790   4.672104   0.576373   0.005784  -0.000709  -0.012940
     3  O   -0.092577   0.576373   8.143092  -0.005085   0.002511  -0.002890
     4  C    0.265708   0.005784  -0.005085   5.141953  -0.011477  -0.022789
     5  C    0.003024  -0.000709   0.002511  -0.011477   4.875809   0.412766
     6  H    0.035863  -0.012940  -0.002890  -0.022789   0.412766   0.517944
     7  H   -0.007078   0.001887  -0.000323  -0.000478   0.418068  -0.023443
     8  H   -0.002404   0.000343   0.000038   0.003181   0.409135  -0.021811
     9  N   -0.125730   0.020098   0.000873   0.062491   0.224487  -0.044217
    10  H   -0.011430   0.000125  -0.000032   0.000510  -0.018011  -0.002191
    11  H    0.012184  -0.001121   0.000008  -0.004311  -0.019042   0.005323
    12  Br  -0.097796   0.007346  -0.000269   0.370005   0.005009   0.000959
    13  C   -0.068544  -0.016436  -0.016417   0.257447   0.001230  -0.001743
    14  H   -0.022231  -0.001949   0.005679  -0.017160   0.005368  -0.000947
    15  H   -0.004511  -0.001678   0.001307  -0.038931  -0.000539  -0.000095
    16  H    0.018231  -0.000289   0.003292  -0.045347  -0.002441   0.000209
    17  Br   0.288870  -0.105678   0.004282  -0.062832  -0.002287   0.000786
    18  N   -0.099279   0.386099  -0.104420  -0.005092  -0.002486   0.004109
    19  C    0.009931  -0.050032  -0.020203  -0.001186   0.000044   0.000074
    20  C   -0.002153   0.009891   0.003243   0.000197   0.000024  -0.000106
    21  C   -0.000167  -0.000049  -0.000139  -0.000004  -0.000001  -0.000001
    22  C    0.000076  -0.000269   0.000311  -0.000000  -0.000000   0.000001
    23  C   -0.000445   0.000315  -0.000648   0.000024  -0.000000  -0.000006
    24  C    0.003697  -0.022083  -0.003238   0.000191   0.000080  -0.000070
    25  H   -0.013204  -0.036474   0.003792   0.002879  -0.000010   0.000141
    26  H    0.000151   0.000599   0.000022   0.000016   0.000001  -0.000003
    27  H   -0.000002   0.000013  -0.000001  -0.000000  -0.000000   0.000000
    28  H    0.000001   0.000002   0.000002  -0.000000  -0.000000   0.000000
    29  H   -0.000009  -0.000022  -0.000152   0.000000  -0.000000   0.000000
    30  H    0.001424  -0.005915   0.029206   0.000081   0.000025  -0.000039
               7          8          9         10         11         12
     1  C   -0.007078  -0.002404  -0.125730  -0.011430   0.012184  -0.097796
     2  C    0.001887   0.000343   0.020098   0.000125  -0.001121   0.007346
     3  O   -0.000323   0.000038   0.000873  -0.000032   0.000008  -0.000269
     4  C   -0.000478   0.003181   0.062491   0.000510  -0.004311   0.370005
     5  C    0.418068   0.409135   0.224487  -0.018011  -0.019042   0.005009
     6  H   -0.023443  -0.021811  -0.044217  -0.002191   0.005323   0.000959
     7  H    0.500569  -0.016815  -0.031931   0.004947  -0.007294   0.000072
     8  H   -0.016815   0.495432  -0.020674  -0.006674  -0.001972  -0.000347
     9  N   -0.031931  -0.020674   6.638955   0.351348   0.351801  -0.076914
    10  H    0.004947  -0.006674   0.351348   0.406344  -0.020675   0.001062
    11  H   -0.007294  -0.001972   0.351801  -0.020675   0.397082   0.002196
    12  Br   0.000072  -0.000347  -0.076914   0.001062   0.002196  34.991911
    13  C    0.002070   0.000112  -0.011921   0.004439  -0.008468  -0.065637
    14  H   -0.002231   0.000260  -0.003286  -0.000070  -0.000322   0.006116
    15  H   -0.000041   0.000016   0.004510  -0.000187   0.000057   0.001868
    16  H    0.000256  -0.000047  -0.002988   0.000348   0.001011  -0.009204
    17  Br   0.000149   0.000170   0.004050   0.003859   0.000195  -0.026811
    18  N    0.000062   0.000021   0.000588   0.000011  -0.000011  -0.000452
    19  C   -0.000002   0.000002   0.000091  -0.000002  -0.000002   0.000008
    20  C    0.000000  -0.000000  -0.000001  -0.000000   0.000000   0.000001
    21  C   -0.000000  -0.000000  -0.000000  -0.000000   0.000000   0.000000
    22  C    0.000000   0.000000   0.000000   0.000000  -0.000000   0.000000
    23  C    0.000000   0.000000   0.000000  -0.000000  -0.000000   0.000000
    24  C    0.000001  -0.000000   0.000002   0.000001  -0.000000   0.000003
    25  H    0.000003   0.000001   0.000041   0.000019  -0.000000  -0.000022
    26  H    0.000000  -0.000000   0.000000  -0.000000  -0.000000   0.000001
    27  H    0.000000   0.000000   0.000000  -0.000000  -0.000000  -0.000000
    28  H    0.000000   0.000000   0.000000   0.000000  -0.000000   0.000000
    29  H    0.000000  -0.000000  -0.000000  -0.000000   0.000000  -0.000000
    30  H   -0.000000   0.000000   0.000011   0.000000  -0.000000  -0.000002
              13         14         15         16         17         18
     1  C   -0.068544  -0.022231  -0.004511   0.018231   0.288870  -0.099279
     2  C   -0.016436  -0.001949  -0.001678  -0.000289  -0.105678   0.386099
     3  O   -0.016417   0.005679   0.001307   0.003292   0.004282  -0.104420
     4  C    0.257447  -0.017160  -0.038931  -0.045347  -0.062832  -0.005092
     5  C    0.001230   0.005368  -0.000539  -0.002441  -0.002287  -0.002486
     6  H   -0.001743  -0.000947  -0.000095   0.000209   0.000786   0.004109
     7  H    0.002070  -0.002231  -0.000041   0.000256   0.000149   0.000062
     8  H    0.000112   0.000260   0.000016  -0.000047   0.000170   0.000021
     9  N   -0.011921  -0.003286   0.004510  -0.002988   0.004050   0.000588
    10  H    0.004439  -0.000070  -0.000187   0.000348   0.003859   0.000011
    11  H   -0.008468  -0.000322   0.000057   0.001011   0.000195  -0.000011
    12  Br  -0.065637   0.006116   0.001868  -0.009204  -0.026811  -0.000452
    13  C    5.025827   0.408215   0.420483   0.405819   0.007778   0.000232
    14  H    0.408215   0.511178  -0.016425  -0.023273   0.000089  -0.000350
    15  H    0.420483  -0.016425   0.501859  -0.019768   0.000062  -0.000094
    16  H    0.405819  -0.023273  -0.019768   0.524484  -0.000247   0.000121
    17  Br   0.007778   0.000089   0.000062  -0.000247  35.020746  -0.007929
    18  N    0.000232  -0.000350  -0.000094   0.000121  -0.007929   6.497216
    19  C   -0.000091  -0.000116   0.000003   0.000001   0.014259   0.333474
    20  C   -0.000000   0.000007  -0.000001  -0.000000  -0.002242  -0.068775
    21  C    0.000000  -0.000001  -0.000000  -0.000000  -0.000040   0.003293
    22  C    0.000000   0.000001   0.000000   0.000000  -0.000004   0.000549
    23  C   -0.000010   0.000005  -0.000001  -0.000000   0.000006   0.003342
    24  C    0.000015   0.000001   0.000019  -0.000001  -0.000770  -0.054929
    25  H   -0.000062  -0.000036  -0.000003  -0.000002   0.011549   0.383789
    26  H   -0.000001   0.000000   0.000000   0.000000   0.001214  -0.000852
    27  H    0.000000  -0.000000   0.000000   0.000000  -0.000000  -0.000105
    28  H   -0.000000  -0.000000   0.000000  -0.000000  -0.000000  -0.000000
    29  H    0.000000  -0.000000  -0.000000  -0.000000   0.000000  -0.000106
    30  H   -0.000050   0.000258  -0.000009   0.000002  -0.000119  -0.001922
              19         20         21         22         23         24
     1  C    0.009931  -0.002153  -0.000167   0.000076  -0.000445   0.003697
     2  C   -0.050032   0.009891  -0.000049  -0.000269   0.000315  -0.022083
     3  O   -0.020203   0.003243  -0.000139   0.000311  -0.000648  -0.003238
     4  C   -0.001186   0.000197  -0.000004  -0.000000   0.000024   0.000191
     5  C    0.000044   0.000024  -0.000001  -0.000000  -0.000000   0.000080
     6  H    0.000074  -0.000106  -0.000001   0.000001  -0.000006  -0.000070
     7  H   -0.000002   0.000000  -0.000000   0.000000   0.000000   0.000001
     8  H    0.000002  -0.000000  -0.000000   0.000000   0.000000  -0.000000
     9  N    0.000091  -0.000001  -0.000000   0.000000   0.000000   0.000002
    10  H   -0.000002  -0.000000  -0.000000   0.000000  -0.000000   0.000001
    11  H   -0.000002   0.000000   0.000000  -0.000000  -0.000000  -0.000000
    12  Br   0.000008   0.000001   0.000000   0.000000   0.000000   0.000003
    13  C   -0.000091  -0.000000   0.000000   0.000000  -0.000010   0.000015
    14  H   -0.000116   0.000007  -0.000001   0.000001   0.000005   0.000001
    15  H    0.000003  -0.000001  -0.000000   0.000000  -0.000001   0.000019
    16  H    0.000001  -0.000000  -0.000000   0.000000  -0.000000  -0.000001
    17  Br   0.014259  -0.002242  -0.000040  -0.000004   0.000006  -0.000770
    18  N    0.333474  -0.068775   0.003293   0.000549   0.003342  -0.054929
    19  C    4.897923   0.355472   0.017493  -0.097552   0.017041   0.353674
    20  C    0.355472   5.183353   0.424748   0.031743  -0.084713   0.056836
    21  C    0.017493   0.424748   4.950651   0.408798   0.012107  -0.084598
    22  C   -0.097552   0.031743   0.408798   5.042725   0.413725   0.034283
    23  C    0.017041  -0.084713   0.012107   0.413725   4.991229   0.398676
    24  C    0.353674   0.056836  -0.084598   0.034283   0.398676   5.212673
    25  H   -0.039667  -0.004496   0.001048  -0.000073  -0.000042   0.007610
    26  H   -0.068482   0.449470  -0.037442   0.009413  -0.003275   0.009791
    27  H    0.014908  -0.062800   0.457724  -0.058680   0.012130  -0.005166
    28  H   -0.005180   0.012935  -0.059207   0.457625  -0.060303   0.013248
    29  H    0.014097  -0.004005   0.011181  -0.056684   0.452049  -0.058364
    30  H   -0.048284   0.008736  -0.003631   0.009104  -0.038530   0.432682
              25         26         27         28         29         30
     1  C   -0.013204   0.000151  -0.000002   0.000001  -0.000009   0.001424
     2  C   -0.036474   0.000599   0.000013   0.000002  -0.000022  -0.005915
     3  O    0.003792   0.000022  -0.000001   0.000002  -0.000152   0.029206
     4  C    0.002879   0.000016  -0.000000  -0.000000   0.000000   0.000081
     5  C   -0.000010   0.000001  -0.000000  -0.000000  -0.000000   0.000025
     6  H    0.000141  -0.000003   0.000000   0.000000   0.000000  -0.000039
     7  H    0.000003   0.000000   0.000000   0.000000   0.000000  -0.000000
     8  H    0.000001  -0.000000   0.000000   0.000000  -0.000000   0.000000
     9  N    0.000041   0.000000   0.000000   0.000000  -0.000000   0.000011
    10  H    0.000019  -0.000000  -0.000000   0.000000  -0.000000   0.000000
    11  H   -0.000000  -0.000000  -0.000000  -0.000000   0.000000  -0.000000
    12  Br  -0.000022   0.000001  -0.000000   0.000000  -0.000000  -0.000002
    13  C   -0.000062  -0.000001   0.000000  -0.000000   0.000000  -0.000050
    14  H   -0.000036   0.000000  -0.000000  -0.000000  -0.000000   0.000258
    15  H   -0.000003   0.000000   0.000000   0.000000  -0.000000  -0.000009
    16  H   -0.000002   0.000000   0.000000  -0.000000  -0.000000   0.000002
    17  Br   0.011549   0.001214  -0.000000  -0.000000   0.000000  -0.000119
    18  N    0.383789  -0.000852  -0.000105  -0.000000  -0.000106  -0.001922
    19  C   -0.039667  -0.068482   0.014908  -0.005180   0.014097  -0.048284
    20  C   -0.004496   0.449470  -0.062800   0.012935  -0.004005   0.008736
    21  C    0.001048  -0.037442   0.457724  -0.059207   0.011181  -0.003631
    22  C   -0.000073   0.009413  -0.058680   0.457625  -0.056684   0.009104
    23  C   -0.000042  -0.003275   0.012130  -0.060303   0.452049  -0.038530
    24  C    0.007610   0.009791  -0.005166   0.013248  -0.058364   0.432682
    25  H    0.443351   0.003927  -0.000052  -0.000000   0.000017  -0.000366
    26  H    0.003927   0.501341  -0.007365  -0.000040   0.000013   0.000013
    27  H   -0.000052  -0.007365   0.512420  -0.006487  -0.000073  -0.000003
    28  H   -0.000000  -0.000040  -0.006487   0.513239  -0.006661   0.000035
    29  H    0.000017   0.000013  -0.000073  -0.006661   0.513880  -0.006470
    30  H   -0.000366   0.000013  -0.000003   0.000035  -0.006470   0.462694
 Mulliken charges:
               1
     1  C   -0.267759
     2  C    0.434875
     3  O   -0.527637
     4  C    0.104225
     5  C   -0.300578
     6  H    0.155117
     7  H    0.161554
     8  H    0.162032
     9  N   -0.341682
    10  H    0.286262
    11  H    0.293362
    12  Br  -0.109101
    13  C   -0.344287
    14  H    0.151219
    15  H    0.152098
    16  H    0.149833
    17  Br  -0.149103
    18  N   -0.266103
    19  C    0.302301
    20  C   -0.307364
    21  C   -0.101764
    22  C   -0.195092
    23  C   -0.112675
    24  C   -0.294264
    25  H    0.236343
    26  H    0.141486
    27  H    0.143539
    28  H    0.140791
    29  H    0.141309
    30  H    0.161066
 Sum of Mulliken charges =  -0.00000
 Mulliken charges with hydrogens summed into heavy atoms:
               1
     1  C   -0.267759
     2  C    0.434875
     3  O   -0.527637
     4  C    0.104225
     5  C    0.178125
     9  N    0.237942
    12  Br  -0.109101
    13  C    0.108863
    17  Br  -0.149103
    18  N   -0.029760
    19  C    0.302301
    20  C   -0.165878
    21  C    0.041775
    22  C   -0.054302
    23  C    0.028634
    24  C   -0.133198
 APT charges:
               1
     1  C   -0.460042
     2  C   -0.010419
     3  O   -0.221355
     4  C   -0.040281
     5  C   -0.955771
     6  H   -0.071703
     7  H    0.441958
     8  H    0.706812
     9  N   -1.092397
    10  H    0.489287
    11  H    0.934741
    12  Br   0.162199
    13  C   -1.231793
    14  H    0.249167
    15  H    0.330024
    16  H    0.673142
    17  Br   0.008936
    18  N   -0.411056
    19  C   -0.265225
    20  C   -0.556908
    21  C   -0.625800
    22  C   -0.748614
    23  C   -0.632510
    24  C   -0.494504
    25  H    0.354524
    26  H    0.229716
    27  H    0.958208
    28  H    1.298411
    29  H    0.856936
    30  H    0.124318
 Sum of APT charges =  -0.00000
 APT charges with hydrogens summed into heavy atoms:
               1
     1  C   -0.460042
     2  C   -0.010419
     3  O   -0.221355
     4  C   -0.040281
     5  C    0.121296
     9  N    0.331631
    12  Br   0.162199
    13  C    0.020539
    17  Br   0.008936
    18  N   -0.056532
    19  C   -0.265225
    20  C   -0.327192
    21  C    0.332408
    22  C    0.549797
    23  C    0.224426
    24  C   -0.370186
 Electronic spatial extent (au):  <R**2>=           7095.4228
 Charge=             -0.0000 electrons
 Dipole moment (field-independent basis, Debye):
    X=             -4.6212    Y=              0.7019    Z=              6.0070  Tot=              7.6113
 Quadrupole moment (field-independent basis, Debye-Ang):
   XX=           -109.0672   YY=           -115.1449   ZZ=           -115.3202
   XY=            -14.0373   XZ=            -11.2681   YZ=              4.6929
 Traceless Quadrupole moment (field-independent basis, Debye-Ang):
   XX=              4.1102   YY=             -1.9675   ZZ=             -2.1428
   XY=            -14.0373   XZ=            -11.2681   YZ=              4.6929
 Octapole moment (field-independent basis, Debye-Ang**2):
  XXX=           -135.8947  YYY=            -50.0994  ZZZ=             19.3006  XYY=            -50.2306
  XXY=             -5.1005  XXZ=             30.0919  XZZ=            -91.0948  YZZ=             -5.0541
  YYZ=              9.1888  XYZ=            -14.4855
 Hexadecapole moment (field-independent basis, Debye-Ang**3):
 XXXX=          -6277.5890 YYYY=          -1209.6413 ZZZZ=           -623.3180 XXXY=            -26.3187
 XXXZ=            -45.4699 YYYX=             -5.8142 YYYZ=             -2.0122 ZZZX=             19.8336
 ZZZY=             17.2314 XXYY=          -1212.3056 XXZZ=          -1292.7931 YYZZ=           -314.6298
 XXYZ=              3.0493 YYXZ=              4.6083 ZZXY=             -8.2272
 N-N= 1.930385656690D+03 E-N=-1.759194671404D+04  KE= 5.750592433926D+03
  Exact polarizability:   0.000   0.000   0.000   0.000   0.000   0.000
 Approx polarizability: 263.736   0.321 232.197  -2.523  -6.946 170.244
   1 Symmetry operations used in ECPInt.
 ECPInt:  NShTT=   29403 NPrTT=   98385 LenC2=   25765 LenP2D=   60334.
 LDataN:  DoStor=T MaxTD1= 8 Len=  415
 D2PCM: PCM CHGder 2nd derivatives, FixD1E=F FixD2E=F DoIter=F DoCFld=F I1PDM=0
 Calling FoFJK, ICntrl=    100147 FMM=F ISym2X=0 I1Cent= 0 IOpClX= 0 NMat=1 NMatS=1 NMatT=0.
 ***** Axes restored to original set *****
 -------------------------------------------------------------------
 Center     Atomic                   Forces (Hartrees/Bohr)
 Number     Number              X              Y              Z
 -------------------------------------------------------------------
      1        6          -0.000062104    0.000027045   -0.000046070
      2        6           0.000061884   -0.000158714   -0.000025679
      3        8          -0.000231859    0.000024618    0.000054322
      4        6          -0.000051181   -0.000002655    0.000044264
      5        6           0.000020580    0.000015898   -0.000039652
      6        1           0.000030236   -0.000027521    0.000029196
      7        1          -0.000003490    0.000003524    0.000014450
      8        1           0.000003539    0.000023222   -0.000014941
      9        7          -0.000025710    0.000004592    0.000073497
     10        1           0.000044247   -0.000051476   -0.000014494
     11        1          -0.000009499   -0.000000637   -0.000022521
     12       35          -0.000028416   -0.000020937    0.000017319
     13        6           0.000036495   -0.000009196   -0.000052360
     14        1           0.000003030    0.000017232    0.000008848
     15        1           0.000018635   -0.000009316   -0.000008908
     16        1          -0.000003065   -0.000010471    0.000000182
     17       35          -0.000010481    0.000043172   -0.000024612
     18        7           0.000152824    0.000085506    0.000085115
     19        6          -0.000273014    0.000112192   -0.000056230
     20        6           0.000003822   -0.000037289   -0.000024237
     21        6          -0.000079270   -0.000022953    0.000011181
     22        6           0.000032313    0.000081893    0.000020629
     23        6           0.000073964   -0.000169438   -0.000019719
     24        6           0.000234282    0.000234268    0.000114957
     25        1           0.000021284   -0.000012100    0.000074943
     26        1           0.000030958   -0.000004059   -0.000057114
     27        1          -0.000002907    0.000002546   -0.000005842
     28        1           0.000004444   -0.000007195    0.000006418
     29        1          -0.000007442   -0.000002676    0.000001397
     30        1           0.000015902   -0.000129074   -0.000144340
 -------------------------------------------------------------------
 Cartesian Forces:  Max     0.000273014 RMS     0.000072736
 FormGI is forming the generalized inverse of G from B-inverse, IUseBI=4.

 GradGradGradGradGradGradGradGradGradGradGradGradGradGradGradGradGradGrad
 Berny optimization.
 Internal  Forces:  Max     0.000695169 RMS     0.000107313
 Search for a saddle point.
 Step number   1 out of a maximum of   70
 All quantities printed in internal units (Hartrees-Bohrs-Radians)
 Swapping is turned off.
 Second derivative matrix not updated -- analytic derivatives used.
 ITU=  0
     Eigenvalues ---   -0.03155   0.00063   0.00132   0.00187   0.00290
     Eigenvalues ---    0.00478   0.00591   0.00998   0.01087   0.01659
     Eigenvalues ---    0.01792   0.01802   0.01895   0.02274   0.02336
     Eigenvalues ---    0.02374   0.02608   0.02742   0.02892   0.03048
     Eigenvalues ---    0.03289   0.04391   0.04466   0.04616   0.04769
     Eigenvalues ---    0.05054   0.05459   0.05917   0.06973   0.08427
     Eigenvalues ---    0.10289   0.10821   0.11202   0.11875   0.12322
     Eigenvalues ---    0.12525   0.12677   0.12751   0.13263   0.13570
     Eigenvalues ---    0.14440   0.15273   0.16335   0.16889   0.17349
     Eigenvalues ---    0.17630   0.17902   0.18489   0.19304   0.19473
     Eigenvalues ---    0.20149   0.20641   0.22574   0.23117   0.27419
     Eigenvalues ---    0.28309   0.31725   0.33962   0.34329   0.34432
     Eigenvalues ---    0.34745   0.34970   0.35083   0.35633   0.35684
     Eigenvalues ---    0.36126   0.36153   0.36474   0.36878   0.36970
     Eigenvalues ---    0.37826   0.41698   0.43694   0.45341   0.45582
     Eigenvalues ---    0.46801   0.46912   0.47495   0.48238   0.51396
     Eigenvalues ---    0.53530   0.62292   0.70538   0.75914
 Eigenvectors required to have negative eigenvalues:
                          R6        D9        D6        R7        D8
   1                   -0.85853  -0.19364  -0.18534   0.13493  -0.11905
                          D25       D26       A11       D5        D24
   1                   -0.11721  -0.11529   0.11330  -0.11075  -0.10958
 RFO step:  Lambda0=6.992258508D-10 Lambda=-8.54614938D-06.
 Linear search not attempted -- option 19 set.
 Iteration  1 RMS(Cart)=  0.01283960 RMS(Int)=  0.00004474
 Iteration  2 RMS(Cart)=  0.00007656 RMS(Int)=  0.00000029
 Iteration  3 RMS(Cart)=  0.00000000 RMS(Int)=  0.00000029
 Variable       Old X    -DE/DX   Delta X   Delta X   Delta X     New X
                                 (Linear)    (Quad)   (Total)
    R1        2.75745  -0.00003   0.00000  -0.00014  -0.00014   2.75731
    R2        2.62238   0.00006   0.00000   0.00002   0.00002   2.62240
    R3        3.62970   0.00004   0.00000   0.00002   0.00002   3.62972
    R4        2.32529   0.00000   0.00000  -0.00004  -0.00004   2.32525
    R5        2.59873  -0.00009   0.00000   0.00019   0.00019   2.59892
    R6        3.70141   0.00005   0.00000  -0.00027  -0.00027   3.70114
    R7        3.71745  -0.00004   0.00000   0.00015   0.00015   3.71760
    R8        2.84230   0.00002   0.00000   0.00011   0.00011   2.84240
    R9        2.06305  -0.00005   0.00000  -0.00006  -0.00006   2.06299
   R10        2.05474  -0.00001   0.00000  -0.00003  -0.00003   2.05471
   R11        2.05889  -0.00001   0.00000  -0.00003  -0.00003   2.05886
   R12        2.75262  -0.00005   0.00000  -0.00021  -0.00021   2.75241
   R13        1.91546  -0.00004   0.00000  -0.00011  -0.00011   1.91535
   R14        1.91516  -0.00001   0.00000  -0.00006  -0.00006   1.91510
   R15        2.05140  -0.00001   0.00000   0.00007   0.00007   2.05147
   R16        2.05808   0.00000   0.00000  -0.00002  -0.00002   2.05806
   R17        2.05601   0.00000   0.00000   0.00002   0.00002   2.05602
   R18        2.64279  -0.00003   0.00000   0.00032   0.00032   2.64311
   R19        1.90091   0.00001   0.00000  -0.00001  -0.00001   1.90090
   R20        2.64425  -0.00007   0.00000  -0.00023  -0.00023   2.64402
   R21        2.63750  -0.00016   0.00000  -0.00012  -0.00012   2.63739
   R22        2.61196   0.00006   0.00000   0.00018   0.00018   2.61214
   R23        2.04875  -0.00000   0.00000  -0.00001  -0.00001   2.04874
   R24        2.62480   0.00001   0.00000  -0.00009  -0.00009   2.62471
   R25        2.04628   0.00000   0.00000   0.00000   0.00000   2.04628
   R26        2.61793   0.00007   0.00000   0.00018   0.00018   2.61811
   R27        2.04499  -0.00000   0.00000   0.00001   0.00001   2.04499
   R28        2.62430  -0.00007   0.00000  -0.00009  -0.00009   2.62421
   R29        2.04698   0.00001   0.00000   0.00000   0.00000   2.04698
   R30        2.03485   0.00013   0.00000   0.00011   0.00011   2.03496
    A1        2.16390  -0.00001   0.00000   0.00001   0.00001   2.16391
    A2        2.06716  -0.00002   0.00000   0.00006   0.00006   2.06722
    A3        2.04289   0.00004   0.00000   0.00024   0.00024   2.04312
    A4        2.13752   0.00021   0.00000   0.00029   0.00029   2.13781
    A5        2.03105   0.00013   0.00000  -0.00004  -0.00004   2.03100
    A6        2.11447  -0.00034   0.00000  -0.00025  -0.00025   2.11422
    A7        1.88549   0.00011   0.00000   0.00090   0.00090   1.88639
    A8        2.04434  -0.00001   0.00000  -0.00013  -0.00013   2.04421
    A9        2.13919   0.00000   0.00000  -0.00001  -0.00001   2.13918
   A10        1.66692  -0.00004   0.00000  -0.00029  -0.00029   1.66663
   A11        1.73114  -0.00005   0.00000  -0.00016  -0.00016   1.73098
   A12        1.90346  -0.00001   0.00000  -0.00024  -0.00024   1.90323
   A13        1.90397  -0.00001   0.00000  -0.00011  -0.00011   1.90386
   A14        1.90167  -0.00001   0.00000  -0.00018  -0.00018   1.90149
   A15        1.88995   0.00003   0.00000   0.00021   0.00021   1.89016
   A16        1.90671   0.00001   0.00000   0.00014   0.00014   1.90686
   A17        1.91270   0.00002   0.00000   0.00014   0.00014   1.91284
   A18        1.94830  -0.00004   0.00000  -0.00020  -0.00020   1.94810
   A19        1.93319   0.00011   0.00000   0.00049   0.00049   1.93369
   A20        1.81833  -0.00003   0.00000   0.00081   0.00081   1.81914
   A21        1.91364  -0.00005   0.00000  -0.00144  -0.00144   1.91220
   A22        1.94356  -0.00002   0.00000   0.00045   0.00045   1.94401
   A23        1.96532  -0.00002   0.00000  -0.00007  -0.00008   1.96524
   A24        1.88352   0.00000   0.00000  -0.00022  -0.00022   1.88330
   A25        1.93043  -0.00003   0.00000  -0.00029  -0.00029   1.93014
   A26        1.90972   0.00002   0.00000   0.00016   0.00016   1.90988
   A27        1.92197   0.00001   0.00000   0.00014   0.00014   1.92211
   A28        1.87772   0.00001   0.00000   0.00023   0.00023   1.87795
   A29        1.92379   0.00000   0.00000  -0.00008  -0.00008   1.92370
   A30        1.89940  -0.00001   0.00000  -0.00016  -0.00016   1.89924
   A31        2.25691  -0.00070   0.00000  -0.00117  -0.00117   2.25573
   A32        2.02735   0.00033   0.00000   0.00052   0.00052   2.02787
   A33        1.99820   0.00036   0.00000   0.00074   0.00074   1.99894
   A34        2.03329   0.00046   0.00000   0.00078   0.00078   2.03407
   A35        2.17685  -0.00059   0.00000  -0.00097  -0.00097   2.17588
   A36        2.07299   0.00013   0.00000   0.00020   0.00020   2.07319
   A37        2.10896  -0.00009   0.00000  -0.00014  -0.00014   2.10883
   A38        2.08564   0.00001   0.00000  -0.00018  -0.00018   2.08546
   A39        2.08858   0.00008   0.00000   0.00032   0.00032   2.08889
   A40        2.10158  -0.00003   0.00000  -0.00005  -0.00005   2.10153
   A41        2.08247   0.00002   0.00000   0.00004   0.00004   2.08251
   A42        2.09914   0.00001   0.00000   0.00001   0.00001   2.09915
   A43        2.07455   0.00004   0.00000   0.00014   0.00014   2.07469
   A44        2.10348  -0.00001   0.00000  -0.00003  -0.00003   2.10345
   A45        2.10515  -0.00003   0.00000  -0.00011  -0.00011   2.10504
   A46        2.11904  -0.00007   0.00000  -0.00020  -0.00020   2.11884
   A47        2.09225   0.00003   0.00000   0.00003   0.00003   2.09228
   A48        2.07189   0.00004   0.00000   0.00017   0.00017   2.07206
   A49        2.08924   0.00002   0.00000   0.00005   0.00004   2.08928
   A50        2.08811   0.00007   0.00000   0.00076   0.00076   2.08887
   A51        2.10584  -0.00009   0.00000  -0.00081  -0.00081   2.10503
    D1       -0.14947   0.00001   0.00000  -0.00049  -0.00049  -0.14996
    D2        3.01063   0.00005   0.00000  -0.00037  -0.00037   3.01025
    D3       -3.14092  -0.00005   0.00000  -0.00294  -0.00294   3.13933
    D4        0.01918  -0.00000   0.00000  -0.00283  -0.00283   0.01635
    D5       -1.81442  -0.00004   0.00000  -0.00187  -0.00187  -1.81629
    D6        2.61396  -0.00005   0.00000  -0.00202  -0.00202   2.61194
    D7        0.17569  -0.00001   0.00000  -0.00133  -0.00133   0.17436
    D8        1.17895   0.00001   0.00000   0.00054   0.00054   1.17949
    D9       -0.67586   0.00000   0.00000   0.00039   0.00039  -0.67547
   D10       -3.11413   0.00004   0.00000   0.00108   0.00108  -3.11305
   D11        3.09803  -0.00010   0.00000  -0.00649  -0.00649   3.09154
   D12        0.00017  -0.00010   0.00000  -0.00908  -0.00908  -0.00891
   D13       -0.02532  -0.00006   0.00000  -0.00639  -0.00639  -0.03171
   D14       -3.12318  -0.00006   0.00000  -0.00898  -0.00898  -3.13216
   D15        0.91617  -0.00000   0.00000  -0.00364  -0.00364   0.91253
   D16       -1.17540  -0.00002   0.00000  -0.00490  -0.00490  -1.18030
[...]
 008607,-0.00014987,-0.00002091,-0.01759926,0.00027615,-0.00148759,-0.0
 8691487,-0.28260583,-0.04574856,0.03193886,-0.04787066,-0.01126069,-0.
 03130640,-0.02493874,-0.00464099,0.02111763,0.04562423,0.00807681,0.01
 964780,-0.13140545,-0.01408572,-0.05290240,0.69725619,-0.00062745,0.00
 015323,-0.00032469,0.00135151,-0.00023204,0.00065509,-0.00147051,-0.00
 008137,0.00108573,0.00037448,-0.00018554,0.00014512,-0.00005601,-0.000
 02104,0.00001109,0.00001041,0.00000095,0.00001474,0.00000309,0.0000039
 1,-0.00000051,0.00001130,0.00000137,-0.00000795,-0.00013057,0.00006180
 ,-0.00016557,0.00000971,0.00000936,0.00000207,0.00000812,-0.00000351,-
 0.00003195,-0.00004602,-0.00001572,0.00000787,-0.00000443,-0.00000391,
 -0.00001557,0.00001229,-0.00000121,0.00000731,-0.00000582,0.00000538,-
 0.00000629,-0.00001910,0.00000431,-0.00000661,-0.00000318,-0.00003370,
 -0.00005881,-0.00441621,-0.00195983,0.00491693,-0.01946829,-0.04449298
 ,-0.07997939,0.00766464,-0.01216268,0.00721012,-0.00733067,-0.00473083
 ,-0.00652888,0.00347195,0.00898331,0.01081856,-0.00111124,-0.01524271,
 -0.06546108,0.00002703,0.11606176,0.15708663,-0.00421057,0.00277533,0.
 00079600,0.02224693,0.02005234,0.00456017,-0.00675432,0.00802370,0.001
 72094,0.00036005,-0.00075948,-0.00014947,0.00003421,0.00000574,-0.0000
 1575,0.00001848,0.00003200,-0.00002632,0.00000588,-0.00001872,0.000017
 67,0.00000283,-0.00000465,0.00001112,-0.00012701,0.00005695,-0.0000491
 4,-0.00015498,0.00012338,-0.00015208,-0.00003451,-0.00003621,-0.000057
 87,0.00009598,-0.00030963,-0.00011454,0.00012558,0.00007830,-0.0000013
 0,0.00002887,-0.00010314,0.00010826,0.00002373,-0.00001545,-0.00006975
 ,-0.00007439,-0.00012096,-0.00002352,-0.00645187,-0.00302244,-0.000354
 99,-0.09331550,-0.08420635,-0.01974490,-0.01082219,-0.03379400,-0.0075
 4785,0.00101462,-0.00285978,-0.00061300,-0.00036571,0.00020447,0.00005
 754,0.00019979,0.00053425,0.00010690,0.00044043,-0.00143678,-0.0002850
 8,-0.00506111,0.00171360,0.00021536,0.10367479,-0.00199954,0.00068911,
 0.00030572,-0.00259671,-0.02196238,-0.00364671,0.00274182,0.00111519,-
 0.00120538,0.00110822,-0.00116509,0.00047741,-0.00004594,-0.00005248,0
 .00001258,0.00002669,-0.00000836,0.00005287,0.00000121,0.00000919,0.00
 000051,0.00001501,0.00001904,-0.00002729,-0.00042331,0.00018905,-0.000
 49966,-0.00004557,0.00006752,-0.00004686,-0.00001800,-0.00003932,-0.00
 011372,-0.00038032,-0.00011770,0.00000959,0.00010330,0.00000967,0.0000
 2690,-0.00003480,0.00000459,-0.00003544,-0.00004362,0.00000935,0.00002
 597,0.00001691,0.00001995,-0.00001429,-0.00385808,-0.00055017,-0.00016
 667,-0.08652694,-0.40729244,-0.08969369,-0.00478390,-0.00088293,0.0003
 8132,0.00358940,0.00242303,0.00069119,-0.00043077,-0.00069163,0.000018
 44,0.00046582,0.00033234,0.00005911,0.00003010,-0.00004069,-0.00023856
 ,0.00188111,0.00174150,-0.00001730,0.09086774,0.42639892,-0.00018693,0
 .00007330,-0.00048405,-0.00041732,-0.00379467,-0.00635884,0.00050190,-
 0.00096912,0.00632261,0.00002877,-0.00008499,-0.00048014,-0.00008585,-
 0.00002050,0.00001818,0.00001082,0.00002378,-0.00001606,0.00001183,0.0
 0000122,-0.00000519,0.00002393,0.00000249,-0.00000782,-0.00028402,0.00
 013419,-0.00019408,0.00002054,-0.00000890,0.00001568,0.00000318,-0.000
 00380,-0.00007761,0.00020361,-0.00003615,0.00000049,-0.00001068,-0.000
 07489,0.00016857,0.00007709,0.00002204,-0.00004073,-0.00003035,0.00002
 775,-0.00006961,-0.00000128,0.00001324,-0.00004694,-0.00077224,-0.0001
 0110,0.00030190,-0.02036025,-0.08913909,-0.03018404,-0.00107637,-0.000
 19682,-0.00271647,0.00074506,0.00064377,-0.00040260,-0.00005570,-0.000
 01028,-0.00073387,0.00007537,0.00005184,0.00012706,0.00001606,-0.00021
 819,0.00096766,0.00033518,-0.00002848,0.00194585,0.02104233,0.09376728
 ,0.03193833,0.00024036,-0.00009729,-0.00002566,-0.00030667,0.00046319,
 0.00013275,-0.00006575,-0.00026936,-0.00006939,-0.00016958,0.00009158,
 -0.00007234,0.00001395,0.00000955,-0.00000441,-0.00000161,0.00000037,-
 0.00000689,-0.00000103,-0.00000185,0.00000004,-0.00000326,-0.00000262,
 0.00000561,0.00006141,-0.00002364,0.00007589,-0.00000462,-0.00000321,-
 0.00000292,-0.00000116,0.00000345,0.00001337,0.00004485,0.00000336,-0.
 00000243,0.00000824,0.00000029,0.00000075,-0.00000019,0.00000266,-0.00
 000108,0.00000252,-0.00000425,0.00000181,0.00000395,-0.00000440,0.0000
 0115,0.00004788,-0.00002561,-0.00000009,0.00234329,0.00177069,0.000486
 32,0.00851548,0.01626087,0.00346377,-0.10508684,-0.09987411,-0.0219334
 5,-0.00793827,-0.02997027,-0.00642855,-0.00548974,0.00056248,-0.000123
 68,-0.00112742,0.00060619,0.00012926,-0.00151883,0.00305828,0.00051024
 ,-0.00062754,0.00003779,0.00011287,0.11006525,0.00003085,-0.00005335,-
 0.00003176,0.00039953,-0.00001546,0.00016811,0.00006276,0.00045090,0.0
 0005673,0.00001039,0.00000149,-0.00000348,-0.00000044,-0.00000055,0.00
 000084,-0.00000029,-0.00000103,-0.00000059,-0.00000055,0.00000076,-0.0
 0000004,0.00000055,-0.00000016,0.00000008,-0.00000400,0.00000282,-0.00
 000172,0.00000215,-0.00000124,0.00000152,0.00000021,0.00000007,-0.0000
 0075,0.00000246,0.00000355,0.00000254,-0.00000103,0.00000192,-0.000003
 37,-0.00000132,0.00000083,0.00000043,-0.00000036,-0.00000009,0.0000007
 8,0.00000072,0.00000019,0.00000014,-0.00000147,0.00001304,-0.00000079,
 -0.00204015,0.00138774,0.00091105,-0.01393158,-0.01730829,-0.00477812,
 -0.09925332,-0.28173532,-0.05296728,0.00109039,0.00138145,-0.00030172,
 -0.00013342,0.00224791,-0.00112603,0.00092861,0.00023536,0.00024971,0.
 00411463,-0.00240376,-0.00157438,0.00201531,-0.00015751,-0.00015750,0.
 10784696,0.29644135,-0.00001802,-0.00002867,0.00009290,0.00017998,0.00
 015112,-0.00082953,-0.00000714,0.00005906,0.00022729,0.00002900,-0.000
 00130,0.00001582,0.00000108,-0.00000042,0.00000043,0.00000023,-0.00000
 031,0.00000227,0.00000017,-0.00000026,-0.00000024,-0.00000102,0.000000
 42,-0.00000075,0.00000758,-0.00000717,0.00000078,-0.00000048,0.0000001
 6,0.00000012,0.00000037,-0.00000079,0.00000319,-0.00002815,-0.00000042
 ,-0.00000213,-0.00000143,-0.00000447,0.00001672,0.00000469,0.00000003,
 -0.00000147,-0.00000244,0.00000426,-0.00000396,-0.00000098,-0.00000014
 ,-0.00000127,0.00000098,0.00000310,0.00001016,-0.00037067,0.00103739,-
 0.00292071,-0.00293548,-0.00424445,0.00351580,-0.02168779,-0.05300825,
 -0.04696534,0.00000320,-0.00085581,0.00271962,-0.00026164,-0.00108542,
 0.00742027,0.00021554,0.00022709,-0.00079625,0.00073428,-0.00158838,0.
 00511077,0.00053308,-0.00021161,0.00047641,0.02372812,0.05860109,0.036
 85271,-0.00039171,0.00021438,0.00005168,0.00030525,-0.00085045,-0.0002
 1279,-0.00001909,0.00028875,0.00006478,0.00022353,-0.00014956,0.000096
 58,-0.00001868,-0.00001414,0.00000492,0.00000310,0.00000013,0.00001148
 ,0.00000183,0.00000211,0.00000037,0.00000448,0.00000372,-0.00000784,-0
 .00008607,0.00003389,-0.00010539,0.00000468,0.00000582,0.00000265,0.00
 000139,-0.00000518,-0.00001929,-0.00006757,-0.00000988,0.00000362,-0.0
 0000798,-0.00000093,-0.00000130,0.00000174,-0.00000601,0.00000285,-0.0
 0000207,0.00000494,-0.00000341,-0.00000781,0.00000442,-0.00000207,-0.0
 0003780,-0.00001605,-0.00000655,-0.00145738,0.00173860,0.00035467,-0.0
 0421287,-0.00183323,-0.00059806,-0.01308515,0.02675557,0.00527363,-0.1
 5259032,0.12936601,0.02502362,0.01176774,-0.01185807,-0.00234278,-0.00
 004067,-0.00295951,-0.00075159,-0.00077994,-0.00080559,-0.00016795,0.0
 0011478,0.00009755,0.00002908,0.00106819,-0.00027673,0.00004465,0.1581
 0315,0.00018317,-0.00004349,-0.00001461,-0.00046771,0.00027626,0.00009
 261,0.00011250,-0.00013278,-0.00004402,-0.00014349,0.00007314,-0.00005
 652,0.00001062,0.00000762,-0.00000370,-0.00000171,-0.00000011,-0.00000
 571,-0.00000112,-0.00000111,-0.00000026,-0.00000282,-0.00000187,0.0000
 0428,0.00005055,-0.00001969,0.00006103,-0.00000230,-0.00000343,-0.0000
 0096,-0.00000068,0.00000299,0.00001140,0.00002582,0.00000415,0.0000016
 3,0.00000526,-0.00000293,0.00000035,-0.00000017,0.00000351,-0.00000207
 ,0.00000171,-0.00000272,0.00000250,0.00000462,-0.00000193,0.00000150,0
 .00001595,0.00000815,0.00000165,0.00051296,0.00004359,-0.00001932,-0.0
 0185514,0.00173635,-0.00134299,-0.00399137,0.00573222,0.00038869,0.130
 08716,-0.24214922,-0.04022630,0.01862573,-0.01632485,-0.00385241,-0.00
 361985,-0.00346132,-0.00232412,-0.00073644,0.00006177,0.00022579,-0.00
 001926,-0.00003331,-0.00000256,0.00031710,0.00059117,0.00106519,-0.139
 82186,0.25376333,0.00003299,-0.00000056,-0.00002107,-0.00009201,0.0000
 7770,-0.00012545,0.00001977,-0.00003789,0.00005831,-0.00002537,0.00001
 003,-0.00000129,0.00000082,0.00000089,-0.00000045,-0.00000022,-0.00000
 046,-0.00000039,-0.00000019,-0.00000009,-0.00000011,-0.00000044,-0.000
 00011,0.00000030,0.00000666,-0.00000210,0.00000579,-0.00000030,-0.0000
 0040,0.00000008,-0.00000004,0.00000043,0.00000138,0.00000773,0.0000019
 9,0.00000005,0.00000006,-0.00000079,0.00000060,0.00000056,0.00000058,-
 0.00000056,-0.00000001,-0.00000045,-0.00000002,0.00000090,-0.00000008,
 -0.00000051,0.00000233,0.00000125,0.00000160,0.00007581,0.00000604,0.0
 0019280,-0.00059733,-0.00132974,0.00771118,-0.00110430,0.00094584,0.00
 367300,0.02516740,-0.04023643,-0.04663652,0.00403057,-0.00442787,0.002
 89316,-0.00090966,-0.00231172,0.00687173,-0.00015511,0.00022255,-0.001
 04828,-0.00000124,-0.00000360,-0.00001874,0.00016078,0.00105799,-0.004
 28569,-0.02688154,0.04499895,0.03555209,-0.00023565,0.00005687,0.00001
 974,0.00041180,-0.00009796,-0.00002720,-0.00034842,0.00001848,0.000006
 05,0.00016955,-0.00008712,0.00006882,-0.00001257,-0.00000961,0.0000038
 4,0.00000195,0.00000026,0.00000744,0.00000132,0.00000134,0.00000055,0.
 00000325,0.00000227,-0.00000542,-0.00006048,0.00002295,-0.00007458,0.0
 0000319,0.00000398,0.00000136,0.00000105,-0.00000348,-0.00001309,-0.00
 003793,-0.00000648,-0.00000007,-0.00000871,0.00000213,-0.00000270,0.00
 000148,-0.00000646,0.00000421,0.,0.00000312,-0.00000368,-0.00000817,0.
 00000174,-0.00000119,-0.00003118,-0.00002283,-0.00000633,-0.00040411,0
 .00008167,0.00002911,0.00084768,0.00028084,0.00008264,0.00106521,-0.00
 230081,-0.00058982,-0.00814904,0.00188374,0.00020518,-0.34083554,-0.02
 620980,-0.01102402,-0.01319365,-0.00490843,-0.00131356,0.00000794,0.00
 339862,0.00057698,0.00004463,0.00001555,0.00000468,-0.00057287,0.00007
 774,0.00000040,0.00073408,-0.00025504,0.00003242,0.36032807,0.00001920
 ,0.00002216,-0.00002058,-0.00000910,-0.00027011,-0.00003457,0.00026752
 ,0.00018050,0.00005408,-0.00002111,0.00000288,-0.00000810,0.00000129,0
 .00000096,-0.00000031,-0.00000005,-0.00000003,-0.00000088,-0.00000014,
 -0.00000002,-0.00000016,-0.00000028,-0.00000016,0.00000060,0.00000544,
 -0.00000095,0.00000782,0.00000006,-0.00000062,0.00000042,-0.00000020,0
 .00000036,0.00000084,0.00000425,0.00000115,0.00000099,0.00000288,0.000
 00102,-0.00000087,-0.00000227,0.00000188,-0.00000120,-0.00000072,-0.00
 000081,0.00000190,0.00000274,0.00000024,0.00000061,0.00000484,0.000015
 04,0.00000044,-0.00022194,0.00034844,0.00029121,0.00019588,-0.00145359
 ,-0.00017195,-0.00159731,-0.00423241,-0.00242410,-0.02909026,0.0022113
 3,-0.00052841,-0.02622847,-0.06139300,-0.00599361,0.02622263,0.0069280
 6,0.00141936,0.00255904,-0.00349175,-0.00218762,0.00014197,-0.00003092
 ,-0.00000702,-0.00141533,-0.00007690,-0.00009897,0.00060461,0.00090911
 ,0.00104190,0.02822312,0.05923510,0.00000743,-0.00001092,0.00010416,0.
 00001419,-0.00004533,-0.00012963,0.00004158,0.00005905,-0.00005971,0.0
 0000988,0.00000341,0.00000034,0.00000018,-0.00000044,0.00000039,-0.000
 00003,-0.00000030,0.00000076,-0.00000020,0.00000011,-0.00000012,-0.000
 00017,0.,-0.00000004,0.00000166,-0.00000399,0.00000157,-0.00000029,0.0
 0000012,-0.00000067,0.00000029,-0.00000050,0.00000106,-0.00001055,0.00
 000005,-0.00000048,-0.00000219,-0.00000550,0.00001125,0.00000697,0.000
 00064,-0.00000204,-0.00000297,0.00000302,-0.00000388,-0.00000016,0.000
 00106,-0.00000340,0.00000047,-0.00000089,0.00001229,-0.00003457,0.0003
 1258,-0.00098147,0.00006365,-0.00018838,-0.00062707,-0.00042536,-0.002
 43643,0.00668440,-0.00627851,0.00002905,0.00206529,-0.01103072,-0.0059
 7822,-0.03654589,0.00519318,0.00085231,0.00268436,0.00039230,-0.002172
 89,0.00677111,0.00002870,-0.00001135,0.00001088,-0.00031076,-0.0000728
 5,0.00026187,0.00021337,0.00101998,-0.00379331,0.01198158,0.00761102,0
 .02719179,-0.00028282,0.00009512,0.00002805,0.00067536,-0.00048161,-0.
 00011680,-0.00009635,0.00023549,0.00005181,0.00020229,-0.00011178,0.00
 008491,-0.00001546,-0.00001245,0.00000481,0.00000267,-0.00000029,0.000
 00976,0.00000126,0.00000215,0.00000041,0.00000396,0.00000309,-0.000006
 65,-0.00007370,0.00002896,-0.00009084,0.00000502,0.00000396,0.00000288
 ,0.00000123,-0.00000428,-0.00001625,-0.00005087,-0.00000431,0.00000211
 ,-0.00001005,0.00000189,-0.00000205,0.00000161,-0.00000634,0.00000328,
 -0.00000165,0.00000402,-0.00000349,-0.00000769,0.00000358,-0.00000154,
 -0.00008789,-0.00001807,-0.00000740,-0.00067465,-0.00153070,-0.0003352
 2,-0.00507762,0.00044977,-0.00015708,-0.00110746,0.00063948,0.00013183
 ,-0.00141994,0.00349922,0.00056972,0.01174624,0.01766373,0.00382181,-0
 .10590788,-0.10092131,-0.02220516,-0.00849259,-0.02900249,-0.00622949,
 -0.00037299,0.00006982,0.00001735,0.00009606,-0.00009996,-0.00000226,0
 .00039575,0.00088670,0.00019414,0.00084456,-0.00066625,-0.00004926,0.1
 0852827,-0.00027253,0.00007484,0.00002907,0.00051216,-0.00033678,-0.00
 008340,-0.00017258,0.00012627,0.00001281,0.00019680,-0.00010451,0.0000
 7674,-0.00001461,-0.00001089,0.00000476,0.00000220,0.00000011,0.000007
 92,0.00000142,0.00000171,0.00000039,0.00000400,0.00000262,-0.00000594,
 -0.00007030,0.00002754,-0.00008477,0.00000344,0.00000460,0.00000148,0.
 00000093,-0.00000425,-0.00001583,-0.00004128,-0.00000692,-0.00000079,-
 0.00000773,0.00000285,-0.00000127,0.00000017,-0.00000521,0.00000270,-0
 .00000182,0.00000375,-0.00000318,-0.00000681,0.00000276,-0.00000173,-0
 .00002668,-0.00001470,-0.00000368,-0.00059585,0.00002841,-0.00002302,0
 .00071994,0.00222929,-0.00115133,0.00058231,0.00037312,0.00031670,0.00
 410389,-0.00225734,-0.00194601,-0.01309519,-0.01692180,-0.00460091,-0.
 10120861,-0.28401786,-0.05272067,0.00129171,0.00122666,-0.00048030,0.0
 0000391,0.00006417,0.00004703,-0.00012908,-0.00010150,0.00016434,-0.00
 061356,-0.00101348,-0.00023013,0.00017306,0.00080506,0.00104552,0.1088
 6349,0.29927927,-0.00006461,0.00001829,-0.00000187,0.00011850,-0.00007
 953,0.00000036,-0.00003276,0.00001526,0.00008073,0.00004608,-0.0000253
 1,0.00002360,-0.00000492,-0.00000305,0.00000089,0.00000103,-0.00000059
 ,0.00000243,0.00000003,0.00000070,0.00000003,0.00000097,0.00000066,-0.
 00000156,-0.00001583,0.00000634,-0.00002190,0.00000078,0.00000112,0.00
 000039,0.00000029,-0.00000089,-0.00000355,-0.00000917,-0.00000095,-0.0
 0000062,-0.00000089,-0.00000027,-0.00000016,0.,-0.00000013,0.00000057,
 -0.00000028,0.00000060,-0.00000070,-0.00000152,0.00000073,-0.00000027,
 -0.00000586,-0.00000268,-0.00000166,-0.00013062,-0.00003495,0.00008138
 ,-0.00009343,-0.00117966,0.00758867,0.00010034,0.00031627,-0.00102358,
 0.00071179,-0.00194142,0.00708807,-0.00256145,-0.00407127,0.00310951,-
 0.02231844,-0.05269493,-0.05042140,0.00008470,-0.00102040,0.00339216,-
 0.00000078,0.00004606,-0.00014717,-0.00001120,0.00016515,-0.00086456,-
 0.00011986,-0.00019917,-0.00002214,0.00012955,0.00103212,-0.00399760,0
 .02411337,0.05859792,0.03942474,0.00080647,0.00017709,-0.00001240,-0.0
 0081169,-0.00642395,-0.00138087,-0.00550098,0.00466233,0.00084231,-0.0
 0081129,0.00033124,-0.00033824,0.00005997,0.00004540,-0.00000811,-0.00
 000493,-0.00000077,-0.00003532,-0.00000538,-0.00000407,-0.00000369,-0.
 00001430,-0.00000932,0.00002668,0.00027262,-0.00009586,0.00034767,-0.0
 0001185,-0.00002037,0.00000067,-0.00000628,0.00001475,0.00005545,0.000
 15738,0.00004419,0.00001276,0.00004443,0.00002606,0.00003039,-0.000044
 98,0.00005616,-0.00002969,-0.00002197,-0.00000705,0.00002154,0.0000538
 0,-0.00000214,0.00000067,0.00020215,0.00030892,0.00007119,-0.00140774,
 0.00260195,0.00062188,0.01357213,-0.01256639,-0.00240713,-0.00093771,-
 0.00293523,-0.00072842,-0.00045193,-0.00089809,-0.00018096,-0.00435179
 ,-0.00155606,-0.00054653,-0.01205262,0.02374619,0.00465569,-0.15286460
 ,0.14059585,0.02683984,-0.00005889,0.00011945,0.00002133,0.00040394,-0
 .00083866,-0.00016585,0.00007540,0.00007910,0.00003483,-0.00056748,0.0
 0099793,0.00019032,0.00117532,-0.00020281,0.00006417,0.16310278,0.0004
 8656,0.00008884,-0.00011389,-0.00141967,-0.00312263,-0.00062974,0.0050
 1436,0.00149873,0.00051441,-0.00040905,0.00013303,-0.00016239,0.000027
 01,0.00002299,-0.00000723,-0.00000270,-0.00000043,-0.00002010,-0.00000
 282,-0.00000209,-0.00000316,-0.00000644,-0.00000495,0.00001357,0.00013
 532,-0.00004275,0.00017222,-0.00000595,-0.00001045,0.00000063,-0.00000
 345,0.00000780,0.00002572,0.00008274,0.00001990,0.00000524,0.00005512,
 -0.00001415,0.00001193,-0.00001094,0.00003966,-0.00002649,-0.00001100,
 -0.00000695,0.00002410,0.00004897,0.00000416,0.00000319,0.00007088,0.0
 0021047,0.00003455,-0.00015418,0.00149013,0.00115578,0.01859468,-0.016
 75419,-0.00409458,-0.00326554,-0.00323915,-0.00206177,-0.00111908,-0.0
 0009995,0.00013654,-0.00165973,0.00169648,-0.00127686,-0.00460930,0.00
 827532,0.00102569,0.13537583,-0.25335250,-0.04208451,0.00007786,-0.000
 06768,0.00004612,0.00078619,-0.00090535,-0.00017642,0.00010026,-0.0000
 2112,0.00021628,-0.00033947,0.00028798,-0.00000995,0.00040938,0.000542
 20,0.00105399,-0.14824585,0.26332665,0.00020122,-0.00004196,0.00045442
 ,-0.00034854,-0.00081489,-0.00038888,0.00085606,0.00061603,-0.00019520
 ,-0.00008346,0.00006003,-0.00005133,0.00001655,0.00000566,0.00000157,-
 0.00000272,-0.00000622,-0.00000390,-0.00000217,0.00000096,0.00000037,-
 0.00000222,-0.00000075,0.00000342,0.00003960,-0.00002589,0.00005315,-0
 .00000322,-0.00000208,-0.00000305,-0.00000117,-0.00000115,0.00000931,-
 0.00000160,0.00000900,-0.00000377,-0.00000796,-0.00001641,0.00004164,0
 .00002080,0.00000231,-0.00001030,-0.00001608,0.00001221,-0.00000875,0.
 00001073,0.00000460,-0.00001722,0.00001687,0.00003875,0.00006740,0.000
 07279,0.00121137,-0.00361790,0.00398872,-0.00470451,0.00377419,-0.0007
 8057,-0.00206205,0.00596182,-0.00025015,0.00011730,-0.00083653,-0.0005
 9691,-0.00126221,0.00743342,-0.00118177,0.00165446,0.00305303,0.025738
 89,-0.04216281,-0.04554556,0.00000950,0.00005716,-0.00030964,0.0001701
 1,-0.00019579,-0.00005521,0.00004249,0.00021914,-0.00100752,-0.0000928
 9,0.00001501,0.00034379,0.00018726,0.00104558,-0.00428476,-0.02800018,
 0.04622715,0.03514202\\0.00000011,0.00000042,0.00000169,0.00000145,-0.
 00000469,0.00000033,-0.00000385,0.00000180,-0.00000072,0.00000009,0.00
 000127,0.00000141,-0.00000101,-0.00000167,0.00000079,-0.00000104,-0.00
 000088,0.00000028,-0.00000116,-0.00000115,-0.00000076,-0.00000183,-0.0
 0000178,0.00000134,-0.00000043,-0.00000024,0.00000195,-0.00000130,0.00
 000019,0.00000315,-0.00000050,-0.00000003,0.00000207,0.00000041,0.0000
 0195,0.00000348,0.00000119,0.00000169,0.00000097,0.00000085,0.00000104
 ,0.00000006,0.00000183,0.00000208,0.00000022,0.00000098,0.00000149,0.0
 0000101,-0.00000108,0.00000136,0.00000325,0.00000342,0.00000293,-0.000
 00092,-0.00000649,0.00000169,0.00000151,0.00000003,-0.00000189,-0.0000
 0039,-0.00000213,-0.00000165,-0.00000119,0.00000099,0.00000064,-0.0000
 0214,0.00000223,-0.00000434,-0.00000403,0.00000567,0.00000538,-0.00000
 109,-0.00000010,-0.00000012,0.00000196,-0.00000005,-0.00000064,-0.0000
 0090,-0.00000075,-0.00000118,-0.00000143,0.00000041,-0.00000135,-0.000
 00353,0.00000096,-0.00000045,-0.00000423,0.00000109,-0.00000187,-0.000
 00413\\\@


 Ideas are like rabbits. You get a couple and learn
 how to handle them, and pretty soon you have a dozen.
                                    -- John Steinbeck
 Job cpu time:       0 days 18 hours  1 minutes 19.5 seconds.
 Elapsed time:       0 days  1 hours  7 minutes 42.1 seconds.
 File lengths (MBytes):  RWF=   1275 Int=      0 D2E=      0 Chk=     44 Scr=      1
 Normal termination of Gaussian 16 at Mon Feb 22 18:56:14 2021.
