 Entering Gaussian System, Link 0=g16
 Initial command:
 /apps/gaussian/16/A.03/g16/l1.exe "/beegfs/scratch/user/q/tla25/Gau-108257.inp" -scrdir="/beegfs/scratch/user/q/tla25/"
 Entering Link 1 = /apps/gaussian/16/A.03/g16/l1.exe PID=    108258.
  
 Copyright (c) 1988,1990,1992,1993,1995,1998,2003,2009,2016,
            Gaussian, Inc.  All Rights Reserved.
  
 This is part of the Gaussian(R) 16 program.  It is based on
 the Gaussian(R) 09 system (copyright 2009, Gaussian, Inc.),
 the Gaussian(R) 03 system (copyright 2003, Gaussian, Inc.),
 the Gaussian(R) 98 system (copyright 1998, Gaussian, Inc.),
 the Gaussian(R) 94 system (copyright 1995, Gaussian, Inc.),
 the Gaussian 92(TM) system (copyright 1992, Gaussian, Inc.),
 the Gaussian 90(TM) system (copyright 1990, Gaussian, Inc.),
 the Gaussian 88(TM) system (copyright 1988, Gaussian, Inc.),
 the Gaussian 86(TM) system (copyright 1986, Carnegie Mellon
 University), and the Gaussian 82(TM) system (copyright 1983,
 Carnegie Mellon University). Gaussian is a federally registered
 trademark of Gaussian, Inc.
  
 This software contains proprietary and confidential information,
 including trade secrets, belonging to Gaussian, Inc.
  
 This software is provided under written license and may be
 used, copied, transmitted, or stored only in accord with that
 written license.
  
 The following legend is applicable only to US Government
 contracts under FAR:
  
                    RESTRICTED RIGHTS LEGEND
  
 Use, reproduction and disclosure by the US Government is
 subject to restrictions as set forth in subparagraphs (a)
 and (c) of the Commercial Computer Software - Restricted
 Rights clause in FAR 52.227-19.
  
 Gaussian, Inc.
 340 Quinnipiac St., Bldg. 40, Wallingford CT 06492
  
  
 ---------------------------------------------------------------
 Warning -- This program may not be used in any manner that
 competes with the business of Gaussian, Inc. or will provide
 assistance to any competitor of Gaussian, Inc.  The licensee
 of this program is prohibited from giving any competitor of
 Gaussian, Inc. access to this program.  By using this program,
 the user acknowledges that Gaussian, Inc. is engaged in the
 business of creating and licensing software in the field of
 computational chemistry and represents and warrants to the
 licensee that it is not a competitor of Gaussian, Inc. and that
 it will not use this program in any manner prohibited above.
 ---------------------------------------------------------------
  

 Cite this work as:
 Gaussian 16, Revision A.03,
 M. J. Frisch, G. W. Trucks, H. B. Schlegel, G. E. Scuseria, 
 M. A. Robb, J. R. Cheeseman, G. Scalmani, V. Barone, 
 G. A. Petersson, H. Nakatsuji, X. Li, M. Caricato, A. V. Marenich, 
 J. Bloino, B. G. Janesko, R. Gomperts, B. Mennucci, H. P. Hratchian, 
 J. V. Ortiz, A. F. Izmaylov, J. L. Sonnenberg, D. Williams-Young, 
 F. Ding, F. Lipparini, F. Egidi, J. Goings, B. Peng, A. Petrone, 
 T. Henderson, D. Ranasinghe, V. G. Zakrzewski, J. Gao, N. Rega, 
 G. Zheng, W. Liang, M. Hada, M. Ehara, K. Toyota, R. Fukuda, 
 J. Hasegawa, M. Ishida, T. Nakajima, Y. Honda, O. Kitao, H. Nakai, 
 T. Vreven, K. Throssell, J. A. Montgomery, Jr., J. E. Peralta, 
 F. Ogliaro, M. J. Bearpark, J. J. Heyd, E. N. Brothers, K. N. Kudin, 
 V. N. Staroverov, T. A. Keith, R. Kobayashi, J. Normand, 
 K. Raghavachari, A. P. Rendell, J. C. Burant, S. S. Iyengar, 
 J. Tomasi, M. Cossi, J. M. Millam, M. Klene, C. Adamo, R. Cammi, 
 J. W. Ochterski, R. L. Martin, K. Morokuma, O. Farkas, 
 J. B. Foresman, and D. J. Fox, Gaussian, Inc., Wallingford CT, 2016.
 
 ******************************************
 Gaussian 16:  ES64L-G16RevA.03 25-Dec-2016
                31-Mar-2021 
 ******************************************
 %nprocshared=16
 Will use up to   16 processors via shared memory.
 %mem=48GB
 ----------------------------------------------------------------------
 # wB97XD def2tzvp, opt=(ts, noeigen, calcfc, maxcycles=70, maxstep=5),
  freq=noraman, scrf=(iefpcm, solvent=water)
 ----------------------------------------------------------------------
 1/5=1,6=70,8=5,10=4,11=1,18=20,26=3,38=1/1,3;
 2/9=110,12=2,17=6,18=5,40=1/2;
 3/5=44,7=101,11=2,25=1,30=1,70=2201,71=2,72=1,74=-58,140=1/1,2,3;
 4//1;
 5/5=2,38=5,53=1/2;
 8/6=4,10=90,11=11/1;
 11/6=1,8=1,9=11,15=111,16=1/1,2,10;
 10/6=1,13=1/2;
 6/7=2,8=2,9=2,10=2,28=1/1;
 7/10=1,18=20,25=1/1,2,3,16;
 1/5=1,6=70,8=5,10=4,11=1,18=20,26=3/3(2);
 2/9=110/2;
 99//99;
 2/9=110/2;
 3/5=44,7=101,11=2,25=1,30=1,70=2205,71=1,72=1,74=-58/1,2,3;
 4/5=5,16=3,69=1/1;
 5/5=2,38=5,53=1/2;
 7//1,2,3,16;
 1/5=1,6=70,8=5,11=1,18=20,26=3/3(-5);
 2/9=110/2;
 6/7=2,8=2,9=2,10=2,19=2,28=1/1;
 99/9=1/99;
 ------------------------
 2_iteration/TS-836-2.out
 ------------------------
 Symbolic Z-matrix:
 Charge =  0 Multiplicity = 1
 C                     1.13244  -0.18714  -0.30101 
 C                     1.33043   1.18547   0.0958 
 O                     0.50308   1.89811   0.6391 
 C                    -0.08005  -0.85536  -0.14171 
 C                     0.50436  -1.05967   2.62122 
 H                     1.35666  -0.47527   2.27575 
 H                    -0.26899  -0.38051   2.97021 
 H                     0.82294  -1.70342   3.44005 
 N                     0.00691  -1.84809   1.49794 
 H                     0.68095  -2.56122   1.24124 
 H                    -0.86351  -2.32614   1.70409 
 Cl                   -0.32276  -2.30775  -1.17656 
 C                    -1.36589  -0.07351  -0.10664 
 C                    -2.2991   -0.1245    0.91835 
 C                    -3.48036   0.60113   0.83231 
 C                    -3.74927   1.37474  -0.28301 
 C                    -2.82737   1.41694  -1.32107 
 C                    -1.65035   0.69827  -1.23377 
 H                    -2.13364  -0.70983   1.80938 
 H                    -4.19033   0.55485   1.64797 
 H                    -4.67101   1.93846  -0.34732 
 H                    -3.02565   2.01334  -2.20241 
 H                    -0.93309   0.73584  -2.04346 
 Cl                    2.54672  -1.1195   -0.75165 
 O                     2.56178   1.64462  -0.20292 
 C                     2.83419   2.98924   0.17339 
 H                     2.16538   3.68111  -0.33864 
 H                     2.72916   3.12146   1.25033 
 H                     3.86234   3.17562  -0.12587 
 
 Add virtual bond connecting atoms N9         and C4         Dist= 3.63D+00.
 Add virtual bond connecting atoms H11        and H19        Dist= 3.89D+00.

 GradGradGradGradGradGradGradGradGradGradGradGradGradGradGradGradGradGrad
 Berny optimization.
 Initialization pass.
                           ----------------------------
                           !    Initial Parameters    !
                           ! (Angstroms and Degrees)  !
 --------------------------                            --------------------------
 ! Name  Definition              Value          Derivative Info.                !
 --------------------------------------------------------------------------------
 ! R1    R(1,2)                  1.4425         calculate D2E/DX2 analytically  !
 ! R2    R(1,4)                  1.3936         calculate D2E/DX2 analytically  !
 ! R3    R(1,24)                 1.7529         calculate D2E/DX2 analytically  !
 ! R4    R(2,3)                  1.2196         calculate D2E/DX2 analytically  !
 ! R5    R(2,25)                 1.3477         calculate D2E/DX2 analytically  !
 ! R6    R(4,9)                  1.9187         calculate D2E/DX2 analytically  !
 ! R7    R(4,12)                 1.7998         calculate D2E/DX2 analytically  !
 ! R8    R(4,13)                 1.5053         calculate D2E/DX2 analytically  !
 ! R9    R(5,6)                  1.0896         calculate D2E/DX2 analytically  !
 ! R10   R(5,7)                  1.0868         calculate D2E/DX2 analytically  !
 ! R11   R(5,8)                  1.0892         calculate D2E/DX2 analytically  !
 ! R12   R(5,9)                  1.4597         calculate D2E/DX2 analytically  !
 ! R13   R(9,10)                 1.0143         calculate D2E/DX2 analytically  !
 ! R14   R(9,11)                 1.0142         calculate D2E/DX2 analytically  !
 ! R15   R(11,19)                2.0583         calculate D2E/DX2 analytically  !
 ! R16   R(13,14)                1.3871         calculate D2E/DX2 analytically  !
 ! R17   R(13,18)                1.3953         calculate D2E/DX2 analytically  !
 ! R18   R(14,15)                1.389          calculate D2E/DX2 analytically  !
 ! R19   R(14,19)                1.0789         calculate D2E/DX2 analytically  !
 ! R20   R(15,16)                1.3837         calculate D2E/DX2 analytically  !
 ! R21   R(15,20)                1.0824         calculate D2E/DX2 analytically  !
 ! R22   R(16,17)                1.389          calculate D2E/DX2 analytically  !
 ! R23   R(16,21)                1.0824         calculate D2E/DX2 analytically  !
 ! R24   R(17,18)                1.3818         calculate D2E/DX2 analytically  !
 ! R25   R(17,22)                1.0825         calculate D2E/DX2 analytically  !
 ! R26   R(18,23)                1.0823         calculate D2E/DX2 analytically  !
 ! R27   R(25,26)                1.4226         calculate D2E/DX2 analytically  !
 ! R28   R(26,27)                1.09           calculate D2E/DX2 analytically  !
 ! R29   R(26,28)                1.0901         calculate D2E/DX2 analytically  !
 ! R30   R(26,29)                1.0869         calculate D2E/DX2 analytically  !
 ! A1    A(2,1,4)              122.974          calculate D2E/DX2 analytically  !
 ! A2    A(2,1,24)             117.7828         calculate D2E/DX2 analytically  !
 ! A3    A(4,1,24)             118.4464         calculate D2E/DX2 analytically  !
 ! A4    A(1,2,3)              125.8337         calculate D2E/DX2 analytically  !
 ! A5    A(1,2,25)             112.8691         calculate D2E/DX2 analytically  !
 ! A6    A(3,2,25)             121.2961         calculate D2E/DX2 analytically  !
 ! A7    A(1,4,9)              107.8389         calculate D2E/DX2 analytically  !
 ! A8    A(1,4,12)             116.0116         calculate D2E/DX2 analytically  !
 ! A9    A(1,4,13)             119.7903         calculate D2E/DX2 analytically  !
 ! A10   A(9,4,12)              94.5853         calculate D2E/DX2 analytically  !
 ! A11   A(9,4,13)             106.7106         calculate D2E/DX2 analytically  !
 ! A12   A(12,4,13)            108.5025         calculate D2E/DX2 analytically  !
 ! A13   A(6,5,7)              108.8595         calculate D2E/DX2 analytically  !
 ! A14   A(6,5,8)              109.0595         calculate D2E/DX2 analytically  !
 ! A15   A(6,5,9)              108.1955         calculate D2E/DX2 analytically  !
 ! A16   A(7,5,8)              109.6374         calculate D2E/DX2 analytically  !
 ! A17   A(7,5,9)              110.007          calculate D2E/DX2 analytically  !
 ! A18   A(8,5,9)              111.0353         calculate D2E/DX2 analytically  !
 ! A19   A(4,9,5)              113.1775         calculate D2E/DX2 analytically  !
 ! A20   A(4,9,10)             100.2308         calculate D2E/DX2 analytically  !
 ! A21   A(4,9,11)             112.2511         calculate D2E/DX2 analytically  !
 ! A22   A(5,9,10)             110.3669         calculate D2E/DX2 analytically  !
 ! A23   A(5,9,11)             112.9938         calculate D2E/DX2 analytically  !
 ! A24   A(10,9,11)            106.8798         calculate D2E/DX2 analytically  !
 ! A25   A(9,11,19)             99.7788         calculate D2E/DX2 analytically  !
 ! A26   A(4,13,14)            124.9466         calculate D2E/DX2 analytically  !
 ! A27   A(4,13,18)            116.2705         calculate D2E/DX2 analytically  !
 ! A28   A(14,13,18)           118.6904         calculate D2E/DX2 analytically  !
 ! A29   A(13,14,15)           120.4758         calculate D2E/DX2 analytically  !
 ! A30   A(13,14,19)           121.8067         calculate D2E/DX2 analytically  !
 ! A31   A(15,14,19)           117.7117         calculate D2E/DX2 analytically  !
 ! A32   A(14,15,16)           120.4819         calculate D2E/DX2 analytically  !
 ! A33   A(14,15,20)           119.2634         calculate D2E/DX2 analytically  !
 ! A34   A(16,15,20)           120.2547         calculate D2E/DX2 analytically  !
 ! A35   A(15,16,17)           119.3659         calculate D2E/DX2 analytically  !
 ! A36   A(15,16,21)           120.3024         calculate D2E/DX2 analytically  !
 ! A37   A(17,16,21)           120.3313         calculate D2E/DX2 analytically  !
 ! A38   A(16,17,18)           120.1543         calculate D2E/DX2 analytically  !
 ! A39   A(16,17,22)           120.2418         calculate D2E/DX2 analytically  !
 ! A40   A(18,17,22)           119.6039         calculate D2E/DX2 analytically  !
 ! A41   A(13,18,17)           120.82           calculate D2E/DX2 analytically  !
 ! A42   A(13,18,23)           119.2349         calculate D2E/DX2 analytically  !
 ! A43   A(17,18,23)           119.9438         calculate D2E/DX2 analytically  !
 ! A44   A(11,19,14)           118.5826         calculate D2E/DX2 analytically  !
 ! A45   A(2,25,26)            115.998          calculate D2E/DX2 analytically  !
 ! A46   A(25,26,27)           110.9886         calculate D2E/DX2 analytically  !
 ! A47   A(25,26,28)           110.948          calculate D2E/DX2 analytically  !
 ! A48   A(25,26,29)           105.6868         calculate D2E/DX2 analytically  !
 ! A49   A(27,26,28)           109.1453         calculate D2E/DX2 analytically  !
 ! A50   A(27,26,29)           110.0124         calculate D2E/DX2 analytically  !
 ! A51   A(28,26,29)           110.02           calculate D2E/DX2 analytically  !
 ! D1    D(4,1,2,3)              2.2922         calculate D2E/DX2 analytically  !
 ! D2    D(4,1,2,25)          -177.3374         calculate D2E/DX2 analytically  !
 ! D3    D(24,1,2,3)          -167.3129         calculate D2E/DX2 analytically  !
 ! D4    D(24,1,2,25)           13.0575         calculate D2E/DX2 analytically  !
 ! D5    D(2,1,4,9)            -96.0598         calculate D2E/DX2 analytically  !
 ! D6    D(2,1,4,12)           159.434          calculate D2E/DX2 analytically  !
 ! D7    D(2,1,4,13)            26.1004         calculate D2E/DX2 analytically  !
 ! D8    D(24,1,4,9)            73.4801         calculate D2E/DX2 analytically  !
 ! D9    D(24,1,4,12)          -31.0261         calculate D2E/DX2 analytically  !
 ! D10   D(24,1,4,13)         -164.3597         calculate D2E/DX2 analytically  !
 ! D11   D(1,2,25,26)         -179.334          calculate D2E/DX2 analytically  !
 ! D12   D(3,2,25,26)            1.0174         calculate D2E/DX2 analytically  !
 ! D13   D(1,4,9,5)             47.7755         calculate D2E/DX2 analytically  !
 ! D14   D(1,4,9,10)           -69.7391         calculate D2E/DX2 analytically  !
 ! D15   D(1,4,9,11)           177.1422         calculate D2E/DX2 analytically  !
 ! D16   D(12,4,9,5)           166.9841         calculate D2E/DX2 analytically  !
 ! D17   D(12,4,9,10)           49.4695         calculate D2E/DX2 analytically  !
 ! D18   D(12,4,9,11)          -63.6492         calculate D2E/DX2 analytically  !
 ! D19   D(13,4,9,5)           -82.1317         calculate D2E/DX2 analytically  !
 ! D20   D(13,4,9,10)          160.3536         calculate D2E/DX2 analytically  !
 ! D21   D(13,4,9,11)           47.2349         calculate D2E/DX2 analytically  !
 ! D22   D(1,4,13,14)         -124.4939         calculate D2E/DX2 analytically  !
 ! D23   D(1,4,13,18)           59.0623         calculate D2E/DX2 analytically  !
 ! D24   D(9,4,13,14)           -1.7816         calculate D2E/DX2 analytically  !
 ! D25   D(9,4,13,18)         -178.2253         calculate D2E/DX2 analytically  !
 ! D26   D(12,4,13,14)          99.0826         calculate D2E/DX2 analytically  !
 ! D27   D(12,4,13,18)         -77.3611         calculate D2E/DX2 analytically  !
 ! D28   D(6,5,9,4)            -43.2715         calculate D2E/DX2 analytically  !
 ! D29   D(6,5,9,10)            68.1381         calculate D2E/DX2 analytically  !
 ! D30   D(6,5,9,11)          -172.2583         calculate D2E/DX2 analytically  !
 ! D31   D(7,5,9,4)             75.5313         calculate D2E/DX2 analytically  !
 ! D32   D(7,5,9,10)          -173.059          calculate D2E/DX2 analytically  !
 ! D33   D(7,5,9,11)           -53.4555         calculate D2E/DX2 analytically  !
 ! D34   D(8,5,9,4)           -162.9207         calculate D2E/DX2 analytically  !
 ! D35   D(8,5,9,10)           -51.5111         calculate D2E/DX2 analytically  !
 ! D36   D(8,5,9,11)            68.0925         calculate D2E/DX2 analytically  !
 ! D37   D(4,9,11,19)          -60.0867         calculate D2E/DX2 analytically  !
 ! D38   D(5,9,11,19)           69.3753         calculate D2E/DX2 analytically  !
 ! D39   D(10,9,11,19)        -169.0336         calculate D2E/DX2 analytically  !
 ! D40   D(9,11,19,14)          64.4497         calculate D2E/DX2 analytically  !
 ! D41   D(4,13,14,15)        -177.6344         calculate D2E/DX2 analytically  !
 ! D42   D(4,13,14,19)           3.2567         calculate D2E/DX2 analytically  !
 ! D43   D(18,13,14,15)         -1.2698         calculate D2E/DX2 analytically  !
 ! D44   D(18,13,14,19)        179.6213         calculate D2E/DX2 analytically  !
 ! D45   D(4,13,18,17)         177.7544         calculate D2E/DX2 analytically  !
 ! D46   D(4,13,18,23)          -2.6703         calculate D2E/DX2 analytically  !
 ! D47   D(14,13,18,17)          1.0771         calculate D2E/DX2 analytically  !
 ! D48   D(14,13,18,23)       -179.3476         calculate D2E/DX2 analytically  !
 ! D49   D(13,14,15,16)          0.6503         calculate D2E/DX2 analytically  !
 ! D50   D(13,14,15,20)       -179.3868         calculate D2E/DX2 analytically  !
 ! D51   D(19,14,15,16)        179.7949         calculate D2E/DX2 analytically  !
 ! D52   D(19,14,15,20)         -0.2422         calculate D2E/DX2 analytically  !
 ! D53   D(13,14,19,11)        -25.0198         calculate D2E/DX2 analytically  !
 ! D54   D(15,14,19,11)        155.8477         calculate D2E/DX2 analytically  !
 ! D55   D(14,15,16,17)          0.1914         calculate D2E/DX2 analytically  !
 ! D56   D(14,15,16,21)        179.9559         calculate D2E/DX2 analytically  !
 ! D57   D(20,15,16,17)       -179.7711         calculate D2E/DX2 analytically  !
 ! D58   D(20,15,16,21)         -0.0067         calculate D2E/DX2 analytically  !
 ! D59   D(15,16,17,18)         -0.3866         calculate D2E/DX2 analytically  !
 ! D60   D(15,16,17,22)        179.6798         calculate D2E/DX2 analytically  !
 ! D61   D(21,16,17,18)        179.849          calculate D2E/DX2 analytically  !
 ! D62   D(21,16,17,22)         -0.0846         calculate D2E/DX2 analytically  !
 ! D63   D(16,17,18,13)         -0.2545         calculate D2E/DX2 analytically  !
 ! D64   D(16,17,18,23)       -179.8268         calculate D2E/DX2 analytically  !
 ! D65   D(22,17,18,13)        179.6795         calculate D2E/DX2 analytically  !
 ! D66   D(22,17,18,23)          0.1072         calculate D2E/DX2 analytically  !
 ! D67   D(2,25,26,27)         -61.7466         calculate D2E/DX2 analytically  !
 ! D68   D(2,25,26,28)          59.787          calculate D2E/DX2 analytically  !
 ! D69   D(2,25,26,29)         179.0138         calculate D2E/DX2 analytically  !
 --------------------------------------------------------------------------------
 Trust Radius=5.00D-02 FncErr=1.00D-07 GrdErr=1.00D-06 EigMax=2.50D+02 EigMin=1.00D-04
 Number of steps in this run=     70 maximum allowed number of steps=    174.
 Search for a saddle point of order  1.
 GradGradGradGradGradGradGradGradGradGradGradGradGradGradGradGradGradGrad

                          Input orientation:                          
 ---------------------------------------------------------------------
 Center     Atomic      Atomic             Coordinates (Angstroms)
 Number     Number       Type             X           Y           Z
 ---------------------------------------------------------------------
      1          6           0        1.132440   -0.187140   -0.301010
      2          6           0        1.330430    1.185470    0.095800
      3          8           0        0.503080    1.898110    0.639100
      4          6           0       -0.080050   -0.855360   -0.141710
      5          6           0        0.504360   -1.059670    2.621220
      6          1           0        1.356660   -0.475270    2.275750
      7          1           0       -0.268990   -0.380510    2.970210
      8          1           0        0.822940   -1.703420    3.440050
      9          7           0        0.006910   -1.848090    1.497940
     10          1           0        0.680950   -2.561220    1.241240
     11          1           0       -0.863510   -2.326140    1.704090
     12         17           0       -0.322760   -2.307750   -1.176560
     13          6           0       -1.365890   -0.073510   -0.106640
     14          6           0       -2.299100   -0.124500    0.918350
     15          6           0       -3.480360    0.601130    0.832310
     16          6           0       -3.749270    1.374740   -0.283010
     17          6           0       -2.827370    1.416940   -1.321070
     18          6           0       -1.650350    0.698270   -1.233770
     19          1           0       -2.133640   -0.709830    1.809380
     20          1           0       -4.190330    0.554850    1.647970
     21          1           0       -4.671010    1.938460   -0.347320
     22          1           0       -3.025650    2.013340   -2.202410
     23          1           0       -0.933090    0.735840   -2.043460
     24         17           0        2.546720   -1.119500   -0.751650
     25          8           0        2.561780    1.644620   -0.202920
     26          6           0        2.834190    2.989240    0.173390
     27          1           0        2.165380    3.681110   -0.338640
     28          1           0        2.729160    3.121460    1.250330
     29          1           0        3.862340    3.175620   -0.125870
 ---------------------------------------------------------------------
                    Distance matrix (angstroms):
                    1          2          3          4          5
     1  C    0.000000
     2  C    1.442469   0.000000
     3  O    2.372376   1.219647   0.000000
     4  C    1.393566   2.492158   2.920839   0.000000
     5  C    3.113715   3.478619   3.560515   2.831441   0.000000
     6  H    2.602496   2.740607   3.006685   2.837731   1.089628
     7  H    3.564026   3.643168   3.349966   3.153605   1.086795
     8  H    4.048509   4.448285   4.573691   3.789934   1.089215
     9  N    2.694772   3.594466   3.875281   1.918731   1.459733
    10  H    2.866816   3.971340   4.503314   2.324141   2.046993
    11  H    3.546768   4.442001   4.565749   2.486761   2.077533
    12  Cl   2.716833   4.068725   4.654878   1.799794   4.082274
    13  C    2.508455   2.982642   2.817173   1.505292   3.451314
    14  C    3.642284   3.945389   3.467152   2.565554   3.410821
    15  C    4.814946   4.901796   4.193719   3.825204   4.672949
    16  C    5.125513   5.097320   4.382543   4.296101   5.696865
    17  C    4.392458   4.398682   3.894315   3.755264   5.725004
    18  C    3.065601   3.300026   3.095887   2.464184   4.753323
    19  H    3.923548   4.304451   3.888856   2.836400   2.782178
    20  H    5.716726   5.769376   4.985004   4.699580   5.059052
    21  H    6.180643   6.064704   5.267434   5.378161   6.677235
    22  H    5.074165   4.994254   4.532041   4.599183   6.720995
    23  H    2.855598   3.146764   3.257236   2.622260   5.200900
    24  Cl   1.752872   2.740514   3.900849   2.709560   3.943484
    25  O    2.325506   1.347693   2.238638   3.637707   4.418363
    26  C    3.634611   2.349660   2.615631   4.834566   5.273865
    27  H    4.003965   2.667227   2.626463   5.065599   5.830502
    28  H    3.987857   2.652818   2.612589   5.064043   4.930611
    29  H    4.334880   3.228065   3.674485   5.638394   6.063020
                    6          7          8          9         10
     6  H    0.000000
     7  H    1.770308   0.000000
     8  H    1.774487   1.778525   0.000000
     9  N    2.076403   2.097020   2.111546   0.000000
    10  H    2.424455   2.940615   2.364476   1.014288   0.000000
    11  H    2.946467   2.396245   2.499090   1.014229   1.629371
    12  Cl   4.254043   4.573057   4.794886   2.733664   2.630102
    13  C    3.639982   3.280921   4.475108   2.758331   3.492139
    14  C    3.915374   2.897761   4.312667   2.936728   3.862973
    15  C    5.161290   3.980845   5.534406   4.313096   5.242536
    16  C    6.003358   5.077075   6.651417   5.259972   6.118984
    17  C    5.832982   5.309540   6.762372   5.161432   5.890628
    18  C    4.768232   4.554709   5.807742   4.085670   4.710086
    19  H    3.529124   2.221013   3.519612   2.444296   3.416481
    20  H    5.676650   4.242655   5.783097   4.838745   5.796955
    21  H    7.002813   5.980084   7.602036   6.294909   7.170364
    22  H    6.741790   6.331326   7.775815   6.148142   6.820866
    23  H    5.036399   5.179204   6.253200   4.483504   4.925950
    24  Cl   3.316086   4.725100   4.569762   3.470178   3.087275
    25  O    3.477075   4.709901   5.244442   4.649657   4.828272
    26  C    4.313449   5.367229   6.061126   5.757404   6.048500
    27  H    4.976400   5.776799   6.713703   6.213217   6.608043
    28  H    3.983931   4.920435   5.630987   5.671718   6.040538
    29  H    5.037381   6.268944   6.764523   6.537489   6.700863
                   11         12         13         14         15
    11  H    0.000000
    12  Cl   2.931023   0.000000
    13  C    2.933508   2.687876   0.000000
    14  C    2.743269   3.614021   1.387114   0.000000
    15  C    4.022041   4.739998   2.409927   1.388999   0.000000
    16  C    5.096341   5.108829   2.794465   2.407069   1.383735
    17  C    5.197979   4.490798   2.414996   2.769496   2.393530
    18  C    4.289195   3.286628   1.395344   2.393626   2.761713
    19  H    2.058343   3.840374   2.159971   1.078852   2.118239
    20  H    4.401248   5.579475   3.383926   2.137899   1.082359
    21  H    6.073891   6.133940   3.876825   3.388758   2.144208
    22  H    6.226289   5.199019   3.391460   3.851932   3.377961
    23  H    4.839906   3.222958   2.143277   3.373201   3.844058
    24  Cl   4.372220   3.134709   4.101055   5.221197   6.464920
    25  O    5.579985   4.988965   4.288104   5.292937   6.218362
    26  C    6.653517   6.312432   5.205721   6.049877   6.783125
    27  H    7.030930   6.539067   5.159541   5.999523   6.536955
    28  H    6.541370   6.684335   5.368299   5.994153   6.714532
    29  H    7.480092   6.977561   6.155616   7.067144   7.839729
                   16         17         18         19         20
    16  C    0.000000
    17  C    1.388974   0.000000
    18  C    2.401462   1.381841   0.000000
    19  H    3.366569   3.847613   3.387783   0.000000
    20  H    2.143697   3.378766   3.844020   2.419802   0.000000
    21  H    1.082368   2.149228   3.383527   4.254767   2.475199
    22  H    2.148379   1.082482   2.135210   4.930091   4.278913
    23  H    3.382048   2.138701   1.082345   4.286684   4.926360
    24  Cl   6.788251   5.969808   4.599144   5.350932   7.345030
    25  O    6.317326   5.508633   4.438499   5.624923   7.085505
    26  C    6.793884   6.062904   5.228742   6.406162   7.579216
    27  H    6.348663   5.569487   4.925280   6.509679   7.356301
    28  H    6.882748   6.355510   5.587729   6.215959   7.390869
    29  H    7.823328   7.019521   6.144466   7.402276   8.652193
                   21         22         23         24         25
    21  H    0.000000
    22  H    2.480761   0.000000
    23  H    4.277293   2.456843   0.000000
    24  Cl   7.849218   6.555204   4.149715   0.000000
    25  O    7.240196   5.945863   4.053096   2.818101   0.000000
    26  C    7.596269   6.398010   4.917788   4.221384   1.422610
    27  H    7.055008   5.762108   4.602341   4.833410   2.079145
    28  H    7.662538   6.801998   5.472870   4.693288   2.078703
    29  H    8.625408   7.287477   5.711902   4.535473   2.010312
                   26         27         28         29
    26  C    0.000000
    27  H    1.090030   0.000000
    28  H    1.090098   1.776480   0.000000
    29  H    1.086916   1.783386   1.783524   0.000000
 Stoichiometry    C11H13Cl2NO2
 Framework group  C1[X(C11H13Cl2NO2)]
 Deg. of freedom    81
 Full point group                 C1      NOp   1
 Largest Abelian subgroup         C1      NOp   1
 Largest concise Abelian subgroup C1      NOp   1
                         Standard orientation:                         
 ---------------------------------------------------------------------
 Center     Atomic      Atomic             Coordinates (Angstroms)
 Number     Number       Type             X           Y           Z
 ---------------------------------------------------------------------
      1          6           0        1.132441   -0.187138   -0.301009
      2          6           0        1.330429    1.185472    0.095801
      3          8           0        0.503078    1.898111    0.639101
      4          6           0       -0.080049   -0.855359   -0.141709
      5          6           0        0.504361   -1.059669    2.621221
      6          1           0        1.356661   -0.475268    2.275751
      7          1           0       -0.268989   -0.380510    2.970211
      8          1           0        0.822942   -1.703418    3.440051
      9          7           0        0.006912   -1.848089    1.497941
     10          1           0        0.680953   -2.561219    1.241241
     11          1           0       -0.863507   -2.326140    1.704091
     12         17           0       -0.322757   -2.307750   -1.176559
     13          6           0       -1.365890   -0.073511   -0.106639
     14          6           0       -2.299100   -0.124502    0.918351
     15          6           0       -3.480360    0.601127    0.832311
     16          6           0       -3.749271    1.374737   -0.283009
     17          6           0       -2.827371    1.416938   -1.321069
     18          6           0       -1.650350    0.698269   -1.233769
     19          1           0       -2.133639   -0.709832    1.809381
     20          1           0       -4.190330    0.554846    1.647971
     21          1           0       -4.671012    1.938455   -0.347319
     22          1           0       -3.025652    2.013337   -2.202409
     23          1           0       -0.933091    0.735840   -2.043459
     24         17           0        2.546722   -1.119497   -0.751649
     25          8           0        2.561778    1.644623   -0.202919
     26          6           0        2.834187    2.989244    0.173391
     27          1           0        2.165376    3.681113   -0.338639
     28          1           0        2.729157    3.121464    1.250331
     29          1           0        3.862337    3.175625   -0.125869
 ---------------------------------------------------------------------
 Rotational constants (GHZ):           0.5394956           0.3649359           0.2918717
 Standard basis: def2TZVP (5D, 7F)
 There are   666 symmetry adapted cartesian basis functions of A   symmetry.
 There are   586 symmetry adapted basis functions of A   symmetry.
   586 basis functions,   956 primitive gaussians,   666 cartesian basis functions
    68 alpha electrons       68 beta electrons
       nuclear repulsion energy      1409.4731466019 Hartrees.
 NAtoms=   29 NActive=   29 NUniq=   29 SFac= 1.00D+00 NAtFMM=   60 NAOKFM=F Big=F
 Integral buffers will be    131072 words long.
 Raffenetti 2 integral format.
 Two-electron integral symmetry is turned on.
 Nuclear repulsion after empirical dispersion term =     1409.4508483460 Hartrees.
 Force inversion solution in PCM.
 ------------------------------------------------------------------------------
 Polarizable Continuum Model (PCM)
 =================================
 Model                : PCM.
 Atomic radii         : UFF (Universal Force Field).
 Polarization charges : Total charges.
 Charge compensation  : None.
 Solution method      : Matrix inversion.
 Cavity type          : Scaled VdW (van der Waals Surface) (Alpha=1.100).
 Cavity algorithm     : GePol (No added spheres)
                        Default sphere list used, NSphG=   29.
                        Lebedev-Laikov grids with approx.  5.0 points / Ang**2.
                        Smoothing algorithm: York/Karplus (Gamma=1.0000).
                        Polarization charges: spherical gaussians, with
                                              point-specific exponents (IZeta= 3).
                        Self-potential: point-specific (ISelfS= 7).
                        Self-field    : sphere-specific E.n sum rule (ISelfD= 2).
 1st derivatives      : Analytical E(r).r(x)/FMM algorithm (CHGder, D1EAlg=3).
                        Cavity 1st derivative terms included.
 2nd derivatives      : Analytical E(r).r(xy)/FMM algorithm (CHGder, D2EAlg=3).
                        Cavity 2nd derivative terms included.
 Solvent              : Water, Eps=  78.355300 Eps(inf)=   1.777849
 ------------------------------------------------------------------------------
 One-electron integrals computed using PRISM.
   1 Symmetry operations used in ECPInt.
 ECPInt:  NShTT=   27028 NPrTT=   85497 LenC2=   24873 LenP2D=   56625.
 LDataN:  DoStor=T MaxTD1= 6 Len=  172
 NBasis=   586 RedAO= T EigKep=  7.03D-06  NBF=   586
 NBsUse=   586 1.00D-06 EigRej= -1.00D+00 NBFU=   586
 ExpMin= 9.52D-02 ExpMax= 6.95D+04 ExpMxC= 2.37D+03 IAcc=3 IRadAn=         5 AccDes= 0.00D+00
 Harris functional with IExCor= 4639 and IRadAn=       5 diagonalized for initial guess.
 HarFok:  IExCor= 4639 AccDes= 0.00D+00 IRadAn=         5 IDoV= 1 UseB2=F ITyADJ=14
 ICtDFT=  3500011 ScaDFX=  1.000000  1.000000  1.000000  1.000000
 FoFCou: FMM=F IPFlag=           0 FMFlag=      100000 FMFlg1=           0
         NFxFlg=           0 DoJE=T BraDBF=F KetDBF=T FulRan=T
         wScrn=  0.000000 ICntrl=       500 IOpCl=  0 I1Cent=   200000004 NGrid=           0
         NMat0=    1 NMatS0=      1 NMatT0=    0 NMatD0=    1 NMtDS0=    0 NMtDT0=    0
 Petite list used in FoFCou.
 Requested convergence on RMS density matrix=1.00D-08 within 128 cycles.
 Requested convergence on MAX density matrix=1.00D-06.
 Requested convergence on             energy=1.00D-06.
 No special actions if energy rises.
 Inv3:  Mode=1 IEnd=    14918700.
 Iteration    1 A*A^-1 deviation from unit magnitude is 4.66D-15 for   2222.
 Iteration    1 A*A^-1 deviation from orthogonality  is 3.33D-15 for   2197   2007.
 Iteration    1 A^-1*A deviation from unit magnitude is 4.77D-15 for   2228.
 Iteration    1 A^-1*A deviation from orthogonality  is 1.03D-14 for   1113   1100.
 Error on total polarization charges =  0.01462
 SCF Done:  E(RwB97XD) =  -1552.60759620     A.U. after   15 cycles
            NFock= 15  Conv=0.33D-08     -V/T= 2.0028
 DoSCS=F DFT=T ScalE2(SS,OS)=  1.000000  1.000000
 Range of M.O.s used for correlation:     1   586
 NBasis=   586 NAE=    68 NBE=    68 NFC=     0 NFV=     0
 NROrb=    586 NOA=    68 NOB=    68 NVA=   518 NVB=   518

 **** Warning!!: The largest alpha MO coefficient is  0.59114635D+02

   1 Symmetry operations used in ECPInt.
 ECPInt:  NShTT=   27028 NPrTT=   85497 LenC2=   24873 LenP2D=   56625.
 LDataN:  DoStor=T MaxTD1= 7 Len=  274
 Symmetrizing basis deriv contribution to polar:
 IMax=3 JMax=2 DiffMx= 0.00D+00
 G2DrvN: will do    30 centers at a time, making    1 passes.
 Calling FoFCou, ICntrl=  3107 FMM=F I1Cent=   0 AccDes= 0.00D+00.
 NEqPCM:  Using equilibrium solvation (IEInf=0, Eps=  78.3553, EpsInf=   1.7778)
 G2PCM: DoFxE=T DoFxN=T DoGrad=T DoDP/DQ/DG/TGxP=FFFF NFrqRd=   0 IEInf=0 SqF1=F DoCFld=F IF1Alg=4.
 End of G2Drv F.D. properties file   721 does not exist.
 End of G2Drv F.D. properties file   722 does not exist.
 End of G2Drv F.D. properties file   788 does not exist.
          IDoAtm=11111111111111111111111111111
 NEqPCM:  Using equilibrium solvation (IEInf=0, Eps=  78.3553, EpsInf=   1.7778)
          Differentiating once with respect to nuclear coordinates.
 CalDSu exits because no D1Ps are significant.
          There are    90 degrees of freedom in the 1st order CPHF.  IDoFFX=6 NUNeed=     0.
     84 vectors produced by pass  0 Test12= 3.91D-14 1.11D-09 XBig12= 1.30D-01 1.11D-01.
 AX will form    84 AO Fock derivatives at one time.
     84 vectors produced by pass  1 Test12= 3.91D-14 1.11D-09 XBig12= 3.41D-02 4.05D-02.
     84 vectors produced by pass  2 Test12= 3.91D-14 1.11D-09 XBig12= 9.96D-04 4.59D-03.
     84 vectors produced by pass  3 Test12= 3.91D-14 1.11D-09 XBig12= 1.76D-05 5.79D-04.
     84 vectors produced by pass  4 Test12= 3.91D-14 1.11D-09 XBig12= 2.26D-07 5.60D-05.
     84 vectors produced by pass  5 Test12= 3.91D-14 1.11D-09 XBig12= 2.31D-09 5.58D-06.
     84 vectors produced by pass  6 Test12= 3.91D-14 1.11D-09 XBig12= 1.96D-11 4.77D-07.
     44 vectors produced by pass  7 Test12= 3.91D-14 1.11D-09 XBig12= 1.36D-13 3.15D-08.
      7 vectors produced by pass  8 Test12= 3.91D-14 1.11D-09 XBig12= 3.19D-15 5.67D-09.
      5 vectors produced by pass  9 Test12= 3.91D-14 1.11D-09 XBig12= 3.41D-15 5.79D-09.
      3 vectors produced by pass 10 Test12= 3.91D-14 1.11D-09 XBig12= 3.65D-15 8.57D-09.
      1 vectors produced by pass 11 Test12= 3.91D-14 1.11D-09 XBig12= 3.08D-16 2.25D-09.
 InvSVY:  IOpt=1 It=  1 EMax= 3.61D-16
 Solved reduced A of dimension   648 with    90 vectors.
 End of Minotr F.D. properties file   721 does not exist.
 End of Minotr F.D. properties file   722 does not exist.
 End of Minotr F.D. properties file   788 does not exist.

 **********************************************************************

            Population analysis using the SCF density.

 **********************************************************************

 Orbital symmetries:
       Occupied  (A) (A) (A) (A) (A) (A) (A) (A) (A) (A) (A) (A)
                 (A) (A) (A) (A) (A) (A) (A) (A) (A) (A) (A) (A)
                 (A) (A) (A) (A) (A) (A) (A) (A) (A) (A) (A) (A)
                 (A) (A) (A) (A) (A) (A) (A) (A) (A) (A) (A) (A)
                 (A) (A) (A) (A) (A) (A) (A) (A) (A) (A) (A) (A)
                 (A) (A) (A) (A) (A) (A) (A) (A)
       Virtual   (A) (A) (A) (A) (A) (A) (A) (A) (A) (A) (A) (A)
                 (A) (A) (A) (A) (A) (A) (A) (A) (A) (A) (A) (A)
                 (A) (A) (A) (A) (A) (A) (A) (A) (A) (A) (A) (A)
                 (A) (A) (A) (A) (A) (A) (A) (A) (A) (A) (A) (A)
                 (A) (A) (A) (A) (A) (A) (A) (A) (A) (A) (A) (A)
                 (A) (A) (A) (A) (A) (A) (A) (A) (A) (A) (A) (A)
                 (A) (A) (A) (A) (A) (A) (A) (A) (A) (A) (A) (A)
                 (A) (A) (A) (A) (A) (A) (A) (A) (A) (A) (A) (A)
                 (A) (A) (A) (A) (A) (A) (A) (A) (A) (A) (A) (A)
                 (A) (A) (A) (A) (A) (A) (A) (A) (A) (A) (A) (A)
                 (A) (A) (A) (A) (A) (A) (A) (A) (A) (A) (A) (A)
                 (A) (A) (A) (A) (A) (A) (A) (A) (A) (A) (A) (A)
                 (A) (A) (A) (A) (A) (A) (A) (A) (A) (A) (A) (A)
                 (A) (A) (A) (A) (A) (A) (A) (A) (A) (A) (A) (A)
                 (A) (A) (A) (A) (A) (A) (A) (A) (A) (A) (A) (A)
                 (A) (A) (A) (A) (A) (A) (A) (A) (A) (A) (A) (A)
                 (A) (A) (A) (A) (A) (A) (A) (A) (A) (A) (A) (A)
                 (A) (A) (A) (A) (A) (A) (A) (A) (A) (A) (A) (A)
                 (A) (A) (A) (A) (A) (A) (A) (A) (A) (A) (A) (A)
                 (A) (A) (A) (A) (A) (A) (A) (A) (A) (A) (A) (A)
                 (A) (A) (A) (A) (A) (A) (A) (A) (A) (A) (A) (A)
                 (A) (A) (A) (A) (A) (A) (A) (A) (A) (A) (A) (A)
                 (A) (A) (A) (A) (A) (A) (A) (A) (A) (A) (A) (A)
                 (A) (A) (A) (A) (A) (A) (A) (A) (A) (A) (A) (A)
                 (A) (A) (A) (A) (A) (A) (A) (A) (A) (A) (A) (A)
                 (A) (A) (A) (A) (A) (A) (A) (A) (A) (A) (A) (A)
                 (A) (A) (A) (A) (A) (A) (A) (A) (A) (A) (A) (A)
                 (A) (A) (A) (A) (A) (A) (A) (A) (A) (A) (A) (A)
                 (A) (A) (A) (A) (A) (A) (A) (A) (A) (A) (A) (A)
                 (A) (A) (A) (A) (A) (A) (A) (A) (A) (A) (A) (A)
                 (A) (A) (A) (A) (A) (A) (A) (A) (A) (A) (A) (A)
                 (A) (A) (A) (A) (A) (A) (A) (A) (A) (A) (A) (A)
                 (A) (A) (A) (A) (A) (A) (A) (A) (A) (A) (A) (A)
                 (A) (A) (A) (A) (A) (A) (A) (A) (A) (A) (A) (A)
                 (A) (A) (A) (A) (A) (A) (A) (A) (A) (A) (A) (A)
                 (A) (A) (A) (A) (A) (A) (A) (A) (A) (A) (A) (A)
                 (A) (A) (A) (A) (A) (A) (A) (A) (A) (A) (A) (A)
                 (A) (A) (A) (A) (A) (A) (A) (A) (A) (A) (A) (A)
                 (A) (A) (A) (A) (A) (A) (A) (A) (A) (A) (A) (A)
                 (A) (A) (A) (A) (A) (A) (A) (A) (A) (A) (A) (A)
                 (A) (A) (A) (A) (A) (A) (A) (A) (A) (A) (A) (A)
                 (A) (A) (A) (A) (A) (A) (A) (A) (A) (A) (A) (A)
                 (A) (A) (A) (A) (A) (A) (A) (A) (A) (A) (A) (A)
                 (A) (A)
 The electronic state is 1-A.
 Alpha  occ. eigenvalues -- -101.70286-101.69151 -19.28736 -19.21904 -14.49765
 Alpha  occ. eigenvalues --  -10.41720 -10.40932 -10.32853 -10.32156 -10.32063
 Alpha  occ. eigenvalues --  -10.31867 -10.30015 -10.29598 -10.29506 -10.29429
 Alpha  occ. eigenvalues --  -10.29373  -9.58878  -9.57678  -7.33524  -7.32664
 Alpha  occ. eigenvalues --   -7.32617  -7.32323  -7.31460  -7.31443  -1.20401
 Alpha  occ. eigenvalues --   -1.10718  -1.05629  -0.99867  -0.96927  -0.94399
 Alpha  occ. eigenvalues --   -0.87846  -0.85853  -0.84055  -0.81272  -0.79646
 Alpha  occ. eigenvalues --   -0.73091  -0.71314  -0.69228  -0.65424  -0.63845
 Alpha  occ. eigenvalues --   -0.61701  -0.59246  -0.58279  -0.57471  -0.56846
 Alpha  occ. eigenvalues --   -0.56222  -0.54720  -0.53567  -0.53046  -0.51632
 Alpha  occ. eigenvalues --   -0.51399  -0.49232  -0.48874  -0.48118  -0.47284
 Alpha  occ. eigenvalues --   -0.46551  -0.44608  -0.44076  -0.43539  -0.42492
 Alpha  occ. eigenvalues --   -0.41295  -0.39708  -0.39213  -0.38418  -0.36423
 Alpha  occ. eigenvalues --   -0.34280  -0.32797  -0.28318
 Alpha virt. eigenvalues --    0.02677   0.04313   0.04859   0.08491   0.10478
 Alpha virt. eigenvalues --    0.12480   0.13111   0.14054   0.14713   0.15517
 Alpha virt. eigenvalues --    0.15926   0.16560   0.17301   0.18050   0.18893
 Alpha virt. eigenvalues --    0.19195   0.19306   0.19793   0.20535   0.21556
 Alpha virt. eigenvalues --    0.21740   0.23313   0.23547   0.25621   0.25971
 Alpha virt. eigenvalues --    0.26570   0.26989   0.27692   0.28789   0.29315
 Alpha virt. eigenvalues --    0.29454   0.30146   0.30712   0.30959   0.31324
 Alpha virt. eigenvalues --    0.32147   0.32351   0.34017   0.34245   0.34376
 Alpha virt. eigenvalues --    0.35737   0.36688   0.36741   0.37988   0.38222
 Alpha virt. eigenvalues --    0.38781   0.39416   0.40427   0.40822   0.41178
 Alpha virt. eigenvalues --    0.41385   0.42218   0.42870   0.43188   0.43351
 Alpha virt. eigenvalues --    0.44608   0.44939   0.45356   0.46195   0.46543
 Alpha virt. eigenvalues --    0.47443   0.47893   0.48683   0.48958   0.49083
 Alpha virt. eigenvalues --    0.49743   0.50636   0.50827   0.51249   0.52117
 Alpha virt. eigenvalues --    0.52633   0.52878   0.53583   0.53797   0.54076
 Alpha virt. eigenvalues --    0.54329   0.54952   0.55769   0.56846   0.57388
 Alpha virt. eigenvalues --    0.57869   0.58239   0.58694   0.59737   0.59854
 Alpha virt. eigenvalues --    0.60804   0.61906   0.62667   0.64468   0.65609
 Alpha virt. eigenvalues --    0.65830   0.66946   0.68388   0.68645   0.69961
 Alpha virt. eigenvalues --    0.71015   0.72080   0.72884   0.73285   0.74054
 Alpha virt. eigenvalues --    0.74885   0.75177   0.75863   0.77898   0.78221
 Alpha virt. eigenvalues --    0.79105   0.80142   0.80848   0.81190   0.82208
 Alpha virt. eigenvalues --    0.82764   0.83466   0.84856   0.86411   0.86935
 Alpha virt. eigenvalues --    0.87809   0.88091   0.88884   0.89471   0.91567
 Alpha virt. eigenvalues --    0.92520   0.93474   0.94315   0.95994   0.96142
 Alpha virt. eigenvalues --    0.96609   0.97308   0.98407   0.99571   1.00527
 Alpha virt. eigenvalues --    1.01879   1.03029   1.03918   1.04989   1.06456
 Alpha virt. eigenvalues --    1.07618   1.09331   1.10183   1.11739   1.12463
 Alpha virt. eigenvalues --    1.13557   1.15269   1.16019   1.16396   1.18909
 Alpha virt. eigenvalues --    1.19244   1.20848   1.22433   1.22584   1.24699
 Alpha virt. eigenvalues --    1.25631   1.25999   1.27194   1.29366   1.30374
 Alpha virt. eigenvalues --    1.31607   1.32864   1.33247   1.33513   1.34416
 Alpha virt. eigenvalues --    1.34978   1.35964   1.38308   1.38566   1.40244
 Alpha virt. eigenvalues --    1.40758   1.42778   1.44671   1.47519   1.48496
 Alpha virt. eigenvalues --    1.49245   1.50888   1.53370   1.53547   1.55141
 Alpha virt. eigenvalues --    1.56291   1.56891   1.57182   1.58413   1.59008
 Alpha virt. eigenvalues --    1.59817   1.60128   1.61510   1.62548   1.63346
 Alpha virt. eigenvalues --    1.63757   1.65175   1.65764   1.67175   1.67363
 Alpha virt. eigenvalues --    1.68064   1.68919   1.70956   1.71372   1.73202
 Alpha virt. eigenvalues --    1.73697   1.75128   1.76736   1.77732   1.77927
 Alpha virt. eigenvalues --    1.79351   1.79661   1.80866   1.81730   1.81988
 Alpha virt. eigenvalues --    1.82795   1.84344   1.85580   1.86582   1.87633
 Alpha virt. eigenvalues --    1.88975   1.89775   1.91551   1.92006   1.93125
 Alpha virt. eigenvalues --    1.93694   1.95343   1.95661   1.97274   1.98193
 Alpha virt. eigenvalues --    1.99076   1.99993   2.00051   2.01088   2.01627
 Alpha virt. eigenvalues --    2.02213   2.03076   2.04056   2.05588   2.06553
 Alpha virt. eigenvalues --    2.07097   2.07858   2.09164   2.09602   2.11614
 Alpha virt. eigenvalues --    2.12366   2.13945   2.14586   2.15176   2.15899
 Alpha virt. eigenvalues --    2.16513   2.16602   2.18236   2.19135   2.20018
 Alpha virt. eigenvalues --    2.21058   2.21455   2.22590   2.22780   2.24209
 Alpha virt. eigenvalues --    2.24705   2.25363   2.26312   2.27663   2.27808
 Alpha virt. eigenvalues --    2.29446   2.30079   2.31764   2.32558   2.33893
 Alpha virt. eigenvalues --    2.34854   2.35864   2.36422   2.37460   2.37906
 Alpha virt. eigenvalues --    2.38853   2.39410   2.40657   2.41677   2.42803
 Alpha virt. eigenvalues --    2.44706   2.45400   2.46138   2.47821   2.48192
 Alpha virt. eigenvalues --    2.49653   2.51653   2.52037   2.53310   2.53980
 Alpha virt. eigenvalues --    2.55923   2.58185   2.58308   2.60456   2.60824
 Alpha virt. eigenvalues --    2.61901   2.63263   2.63823   2.64435   2.66702
 Alpha virt. eigenvalues --    2.67472   2.68199   2.69926   2.70165   2.70578
 Alpha virt. eigenvalues --    2.72961   2.73585   2.74196   2.74979   2.77333
 Alpha virt. eigenvalues --    2.77482   2.77921   2.78399   2.79476   2.79982
 Alpha virt. eigenvalues --    2.82214   2.84223   2.84395   2.85167   2.86086
 Alpha virt. eigenvalues --    2.86569   2.87408   2.88425   2.90436   2.90661
 Alpha virt. eigenvalues --    2.92244   2.93173   2.94262   2.94968   2.96057
 Alpha virt. eigenvalues --    2.96528   2.96967   2.98502   2.98897   2.99932
 Alpha virt. eigenvalues --    3.00819   3.03369   3.04708   3.07532   3.09598
 Alpha virt. eigenvalues --    3.11043   3.11857   3.13171   3.14243   3.14710
 Alpha virt. eigenvalues --    3.15716   3.18224   3.18947   3.19640   3.20202
 Alpha virt. eigenvalues --    3.20758   3.22233   3.22738   3.23180   3.23863
 Alpha virt. eigenvalues --    3.26012   3.26465   3.27825   3.28126   3.29838
 Alpha virt. eigenvalues --    3.31421   3.32155   3.32494   3.33358   3.33988
 Alpha virt. eigenvalues --    3.34779   3.36451   3.37264   3.39160   3.39804
 Alpha virt. eigenvalues --    3.40184   3.40746   3.42278   3.43856   3.44258
 Alpha virt. eigenvalues --    3.45573   3.46933   3.46986   3.47895   3.48967
 Alpha virt. eigenvalues --    3.49377   3.50638   3.50953   3.51819   3.53461
 Alpha virt. eigenvalues --    3.54062   3.55573   3.56974   3.57318   3.58339
 Alpha virt. eigenvalues --    3.60507   3.60935   3.61768   3.62545   3.63465
 Alpha virt. eigenvalues --    3.65278   3.66870   3.67200   3.67853   3.70094
 Alpha virt. eigenvalues --    3.70334   3.71781   3.74078   3.75302   3.76488
 Alpha virt. eigenvalues --    3.77758   3.79219   3.81250   3.84360   3.85035
 Alpha virt. eigenvalues --    3.88115   3.88617   3.91154   3.91469   3.93002
 Alpha virt. eigenvalues --    3.95111   3.99629   4.02069   4.03863   4.04537
 Alpha virt. eigenvalues --    4.07270   4.12643   4.13976   4.15475   4.17913
 Alpha virt. eigenvalues --    4.19759   4.21026   4.24202   4.24382   4.24915
 Alpha virt. eigenvalues --    4.26709   4.27843   4.29497   4.30625   4.31474
 Alpha virt. eigenvalues --    4.32524   4.34305   4.37673   4.39658   4.40852
 Alpha virt. eigenvalues --    4.42583   4.43773   4.46412   4.47889   4.48268
 Alpha virt. eigenvalues --    4.50372   4.54495   4.56200   4.56807   4.59415
 Alpha virt. eigenvalues --    4.62018   4.66122   4.67699   4.73985   4.77567
 Alpha virt. eigenvalues --    4.77800   4.82891   4.83898   4.85407   4.94277
 Alpha virt. eigenvalues --    4.96161   4.97638   4.98800   5.00127   5.06836
 Alpha virt. eigenvalues --    5.09172   5.10041   5.16168   5.16640   5.18470
 Alpha virt. eigenvalues --    5.24422   5.25599   5.27644   5.32721   5.33712
 Alpha virt. eigenvalues --    5.35271   5.38427   5.39752   5.47590   5.51289
 Alpha virt. eigenvalues --    5.52338   5.55869   5.59748   5.60461   5.61393
 Alpha virt. eigenvalues --    5.74422   5.77468   5.77917   5.88796   5.95111
 Alpha virt. eigenvalues --    6.05890   6.20129   6.28096   6.34742   6.48523
 Alpha virt. eigenvalues --    6.51412   6.67234   6.75624   6.81383   6.88682
 Alpha virt. eigenvalues --    6.99023   6.99724   7.15141   7.24391   7.40420
 Alpha virt. eigenvalues --    7.52601  10.86396  10.89809  10.92617  10.97581
 Alpha virt. eigenvalues --   11.45751  11.49280  22.21511  22.47138  22.50289
 Alpha virt. eigenvalues --   22.56217  22.70578  22.74791  22.84024  22.95530
 Alpha virt. eigenvalues --   22.96519  23.35783  23.48903  25.79208  25.95341
 Alpha virt. eigenvalues --   32.23851  44.14865  44.27084
          Condensed to atoms (all electrons):
               1          2          3          4          5          6
     1  C    5.814230   0.224204  -0.120032   0.412577   0.021142   0.021843
     2  C    0.224204   4.457011   0.628714  -0.040127  -0.007840  -0.007466
     3  O   -0.120032   0.628714   8.040792  -0.017271   0.005877  -0.003146
     4  C    0.412577  -0.040127  -0.017271   5.112143  -0.034739  -0.021394
     5  C    0.021142  -0.007840   0.005877  -0.034739   4.869268   0.413044
     6  H    0.021843  -0.007466  -0.003146  -0.021394   0.413044   0.508036
     7  H   -0.007644   0.001086   0.000179  -0.002125   0.419405  -0.022132
     8  H   -0.002780   0.000754   0.000273   0.004985   0.406746  -0.020449
     9  N   -0.088963   0.020353   0.000382   0.040014   0.225917  -0.033931
    10  H   -0.017502  -0.000217  -0.000074   0.005334  -0.014465  -0.002565
    11  H    0.011725  -0.001157  -0.000019  -0.004523  -0.022443   0.004998
    12  Cl  -0.057844   0.000136  -0.000105   0.321470   0.003402   0.000818
    13  C   -0.073183  -0.031023  -0.014132   0.308241   0.019195  -0.001297
    14  C   -0.005615   0.007287   0.015018  -0.132284  -0.008813  -0.000683
    15  C   -0.003454   0.001137  -0.001722   0.006615   0.000348  -0.000065
    16  C    0.001652  -0.000876   0.000793  -0.005022  -0.000025   0.000002
    17  C   -0.002939   0.004672  -0.001074   0.009628  -0.000108   0.000012
    18  C    0.010701  -0.010180   0.011803  -0.111229   0.000117   0.000002
    19  H    0.001636   0.000213   0.000094  -0.010248  -0.004054   0.000363
    20  H   -0.000033   0.000016  -0.000001  -0.000343   0.000019  -0.000002
    21  H    0.000008  -0.000004  -0.000003   0.000082   0.000001   0.000000
    22  H   -0.000062   0.000089   0.000038  -0.000204  -0.000002  -0.000000
    23  H   -0.004132  -0.000988  -0.001018  -0.002890   0.000017  -0.000030
    24  Cl   0.258326  -0.043579   0.004385  -0.045165  -0.002132   0.003618
    25  O   -0.133211   0.423307  -0.089921  -0.000090  -0.000865   0.001375
    26  C    0.000764  -0.045513   0.005563   0.000054  -0.000111  -0.000022
    27  H   -0.004336  -0.009794   0.005858   0.000147  -0.000044   0.000054
    28  H    0.000043  -0.004183   0.005752   0.000041   0.000267  -0.000258
    29  H    0.002695   0.002509   0.002205   0.000028  -0.000015   0.000016
               7          8          9         10         11         12
     1  C   -0.007644  -0.002780  -0.088963  -0.017502   0.011725  -0.057844
     2  C    0.001086   0.000754   0.020353  -0.000217  -0.001157   0.000136
     3  O    0.000179   0.000273   0.000382  -0.000074  -0.000019  -0.000105
     4  C   -0.002125   0.004985   0.040014   0.005334  -0.004523   0.321470
     5  C    0.419405   0.406746   0.225917  -0.014465  -0.022443   0.003402
     6  H   -0.022132  -0.020449  -0.033931  -0.002565   0.004998   0.000818
     7  H    0.503253  -0.016718  -0.032758   0.004940  -0.006965   0.000050
     8  H   -0.016718   0.491872  -0.020577  -0.006079  -0.002757  -0.000291
     9  N   -0.032758  -0.020577   6.583695   0.349042   0.352286  -0.069326
    10  H    0.004940  -0.006079   0.349042   0.400898  -0.019600   0.004392
    11  H   -0.006965  -0.002757   0.352286  -0.019600   0.401426   0.004189
    12  Cl   0.000050  -0.000291  -0.069326   0.004392   0.004189  16.964560
    13  C    0.003705  -0.000741  -0.047758   0.005210  -0.006936  -0.072530
    14  C   -0.000365   0.000685   0.039042  -0.000196  -0.004506   0.009331
    15  C    0.001661  -0.000031   0.002299   0.000159  -0.001535  -0.001982
    16  C   -0.000190   0.000004   0.000021  -0.000031   0.000211   0.001248
    17  C    0.000155  -0.000005   0.000123   0.000070  -0.000249  -0.002884
    18  C   -0.000747   0.000039   0.003947  -0.000792   0.000916   0.017669
    19  H   -0.000927  -0.000184   0.003789  -0.000074   0.001856  -0.000076
    20  H    0.000084  -0.000001   0.000006   0.000002  -0.000059   0.000003
    21  H   -0.000001   0.000000   0.000000  -0.000000   0.000001   0.000000
    22  H    0.000001  -0.000000   0.000007   0.000000  -0.000001  -0.000028
    23  H   -0.000005   0.000002   0.000302  -0.000042  -0.000008   0.005652
    24  Cl   0.000208  -0.000021   0.004127   0.006215  -0.000159  -0.020194
    25  O    0.000045  -0.000005   0.000195   0.000001   0.000000  -0.000143
    26  C   -0.000001  -0.000001   0.000065   0.000001  -0.000002   0.000008
    27  H    0.000001  -0.000000   0.000005   0.000000  -0.000000  -0.000001
    28  H   -0.000012   0.000002  -0.000028   0.000001   0.000000   0.000001
    29  H    0.000001  -0.000000   0.000001   0.000000   0.000000   0.000000
              13         14         15         16         17         18
     1  C   -0.073183  -0.005615  -0.003454   0.001652  -0.002939   0.010701
     2  C   -0.031023   0.007287   0.001137  -0.000876   0.004672  -0.010180
     3  O   -0.014132   0.015018  -0.001722   0.000793  -0.001074   0.011803
     4  C    0.308241  -0.132284   0.006615  -0.005022   0.009628  -0.111229
     5  C    0.019195  -0.008813   0.000348  -0.000025  -0.000108   0.000117
     6  H   -0.001297  -0.000683  -0.000065   0.000002   0.000012   0.000002
     7  H    0.003705  -0.000365   0.001661  -0.000190   0.000155  -0.000747
     8  H   -0.000741   0.000685  -0.000031   0.000004  -0.000005   0.000039
     9  N   -0.047758   0.039042   0.002299   0.000021   0.000123   0.003947
    10  H    0.005210  -0.000196   0.000159  -0.000031   0.000070  -0.000792
    11  H   -0.006936  -0.004506  -0.001535   0.000211  -0.000249   0.000916
    12  Cl  -0.072530   0.009331  -0.001982   0.001248  -0.002884   0.017669
    13  C    5.418013   0.079020   0.041520  -0.124089   0.066650   0.319695
    14  C    0.079020   5.420092   0.370334   0.079489  -0.134153   0.077631
    15  C    0.041520   0.370334   5.003911   0.387995   0.050231  -0.095971
    16  C   -0.124089   0.079489   0.387995   5.036187   0.352531   0.067012
    17  C    0.066650  -0.134153   0.050231   0.352531   5.064638   0.350242
    18  C    0.319695   0.077631  -0.095971   0.067012   0.350242   5.259416
    19  H   -0.088532   0.439235   0.000424   0.006067  -0.001198   0.003818
    20  H    0.014232  -0.055435   0.451029  -0.055814   0.011362  -0.003927
    21  H   -0.003919   0.013493  -0.059212   0.456086  -0.058849   0.011642
    22  H    0.015946  -0.005109   0.012720  -0.061815   0.462727  -0.065115
    23  H   -0.082156   0.017681  -0.005751   0.013409  -0.058035   0.467496
    24  Cl   0.010242  -0.000424  -0.000011   0.000022  -0.000212   0.001136
    25  O    0.001895   0.000248  -0.000021   0.000026  -0.000159  -0.000836
    26  C   -0.000312   0.000030   0.000006  -0.000016   0.000087   0.000029
    27  H   -0.000139  -0.000054   0.000013  -0.000020   0.000076   0.000170
    28  H    0.000027   0.000056  -0.000011   0.000006  -0.000014  -0.000015
    29  H    0.000003  -0.000003   0.000000  -0.000000   0.000000   0.000003
              19         20         21         22         23         24
     1  C    0.001636  -0.000033   0.000008  -0.000062  -0.004132   0.258326
     2  C    0.000213   0.000016  -0.000004   0.000089  -0.000988  -0.043579
     3  O    0.000094  -0.000001  -0.000003   0.000038  -0.001018   0.004385
     4  C   -0.010248  -0.000343   0.000082  -0.000204  -0.002890  -0.045165
     5  C   -0.004054   0.000019   0.000001  -0.000002   0.000017  -0.002132
     6  H    0.000363  -0.000002   0.000000  -0.000000  -0.000030   0.003618
     7  H   -0.000927   0.000084  -0.000001   0.000001  -0.000005   0.000208
     8  H   -0.000184  -0.000001   0.000000  -0.000000   0.000002  -0.000021
     9  N    0.003789   0.000006   0.000000   0.000007   0.000302   0.004127
    10  H   -0.000074   0.000002  -0.000000   0.000000  -0.000042   0.006215
    11  H    0.001856  -0.000059   0.000001  -0.000001  -0.000008  -0.000159
    12  Cl  -0.000076   0.000003   0.000000  -0.000028   0.005652  -0.020194
    13  C   -0.088532   0.014232  -0.003919   0.015946  -0.082156   0.010242
    14  C    0.439235  -0.055435   0.013493  -0.005109   0.017681  -0.000424
    15  C    0.000424   0.451029  -0.059212   0.012720  -0.005751  -0.000011
    16  C    0.006067  -0.055814   0.456086  -0.061815   0.013409   0.000022
    17  C   -0.001198   0.011362  -0.058849   0.462727  -0.058035  -0.000212
    18  C    0.003818  -0.003927   0.011642  -0.065115   0.467496   0.001136
    19  H    0.514235  -0.006340  -0.000135   0.000034   0.000049  -0.000043
    20  H   -0.006340   0.505887  -0.006600  -0.000038   0.000004  -0.000000
    21  H   -0.000135  -0.006600   0.507756  -0.006834  -0.000039   0.000000
    22  H    0.000034  -0.000038  -0.006834   0.508829  -0.007387  -0.000003
    23  H    0.000049   0.000004  -0.000039  -0.007387   0.500515   0.000856
    24  Cl  -0.000043  -0.000000   0.000000  -0.000003   0.000856  16.983483
    25  O   -0.000002  -0.000000   0.000000  -0.000002   0.000542  -0.012662
    26  C    0.000002  -0.000000  -0.000000   0.000001  -0.000019   0.000334
    27  H   -0.000000   0.000000  -0.000000   0.000003  -0.000076  -0.000124
    28  H    0.000001  -0.000000   0.000000  -0.000000   0.000015  -0.000156
    29  H   -0.000000   0.000000  -0.000000   0.000000   0.000000  -0.000098
              25         26         27         28         29
     1  C   -0.133211   0.000764  -0.004336   0.000043   0.002695
     2  C    0.423307  -0.045513  -0.009794  -0.004183   0.002509
     3  O   -0.089921   0.005563   0.005858   0.005752   0.002205
     4  C   -0.000090   0.000054   0.000147   0.000041   0.000028
     5  C   -0.000865  -0.000111  -0.000044   0.000267  -0.000015
     6  H    0.001375  -0.000022   0.000054  -0.000258   0.000016
     7  H    0.000045  -0.000001   0.000001  -0.000012   0.000001
     8  H   -0.000005  -0.000001  -0.000000   0.000002  -0.000000
     9  N    0.000195   0.000065   0.000005  -0.000028   0.000001
    10  H    0.000001   0.000001   0.000000   0.000001   0.000000
    11  H    0.000000  -0.000002  -0.000000   0.000000   0.000000
    12  Cl  -0.000143   0.000008  -0.000001   0.000001   0.000000
    13  C    0.001895  -0.000312  -0.000139   0.000027   0.000003
    14  C    0.000248   0.000030  -0.000054   0.000056  -0.000003
    15  C   -0.000021   0.000006   0.000013  -0.000011   0.000000
    16  C    0.000026  -0.000016  -0.000020   0.000006  -0.000000
    17  C   -0.000159   0.000087   0.000076  -0.000014   0.000000
    18  C   -0.000836   0.000029   0.000170  -0.000015   0.000003
    19  H   -0.000002   0.000002  -0.000000   0.000001  -0.000000
    20  H   -0.000000  -0.000000   0.000000  -0.000000   0.000000
    21  H    0.000000  -0.000000  -0.000000   0.000000  -0.000000
    22  H   -0.000002   0.000001   0.000003  -0.000000   0.000000
    23  H    0.000542  -0.000019  -0.000076   0.000015   0.000000
    24  Cl  -0.012662   0.000334  -0.000124  -0.000156  -0.000098
    25  O    7.994281   0.221413  -0.036417  -0.039890  -0.028691
    26  C    0.221413   4.771478   0.425298   0.416775   0.397390
    27  H   -0.036417   0.425298   0.552337  -0.041573  -0.021066
    28  H   -0.039890   0.416775  -0.041573   0.555418  -0.021122
    29  H   -0.028691   0.397390  -0.021066  -0.021122   0.525197
 Mulliken charges:
               1
     1  C   -0.259816
     2  C    0.431459
     3  O   -0.479207
     4  C    0.206294
     5  C   -0.289109
     6  H    0.159260
     7  H    0.155817
     8  H    0.165279
     9  N   -0.332276
    10  H    0.285372
    11  H    0.293312
    12  Cl  -0.107526
    13  C    0.243154
    14  C   -0.221033
    15  C   -0.160637
    16  C   -0.154864
    17  C   -0.113326
    18  C   -0.314673
    19  H    0.139996
    20  H    0.145950
    21  H    0.146527
    22  H    0.146208
    23  H    0.156034
    24  Cl  -0.147969
    25  O   -0.300411
    26  C   -0.193301
    27  H    0.129682
    28  H    0.128859
    29  H    0.140945
 Sum of Mulliken charges =  -0.00000
 Mulliken charges with hydrogens summed into heavy atoms:
               1
     1  C   -0.259816
     2  C    0.431459
     3  O   -0.479207
     4  C    0.206294
     5  C    0.191246
     9  N    0.246408
    12  Cl  -0.107526
    13  C    0.243154
    14  C   -0.081037
    15  C   -0.014687
    16  C   -0.008337
    17  C    0.032882
    18  C   -0.158638
    24  Cl  -0.147969
    25  O   -0.300411
    26  C    0.206186
 APT charges:
               1
     1  C   -0.338301
     2  C   -0.001998
     3  O   -0.334837
     4  C   -0.194010
     5  C   -1.042480
     6  H    0.144691
     7  H    0.274247
     8  H    0.755534
     9  N   -0.926222
    10  H    0.621315
    11  H    0.668367
    12  Cl   0.176632
    13  C   -0.153048
    14  C   -0.618306
    15  C   -0.661632
    16  C   -0.615270
    17  C   -0.555685
    18  C   -0.585497
    19  H    0.383027
    20  H    0.799558
    21  H    0.973553
    22  H    0.709192
    23  H    0.276762
    24  Cl   0.118519
    25  O   -0.054252
    26  C   -1.262439
    27  H    0.305468
    28  H    0.333440
    29  H    0.803671
 Sum of APT charges =  -0.00000
 APT charges with hydrogens summed into heavy atoms:
               1
     1  C   -0.338301
     2  C   -0.001998
     3  O   -0.334837
     4  C   -0.194010
     5  C    0.131993
     9  N    0.363459
    12  Cl   0.176632
    13  C   -0.153048
    14  C   -0.235279
    15  C    0.137926
    16  C    0.358283
    17  C    0.153507
    18  C   -0.308735
    24  Cl   0.118519
    25  O   -0.054252
    26  C    0.180139
 Electronic spatial extent (au):  <R**2>=           4153.3602
 Charge=             -0.0000 electrons
 Dipole moment (field-independent basis, Debye):
    X=             -2.4897    Y=             -2.9543    Z=              5.1042  Tot=              6.4015
 Quadrupole moment (field-independent basis, Debye-Ang):
   XX=           -103.1684   YY=            -99.7729   ZZ=            -96.5524
   XY=              2.9363   XZ=              1.8614   YZ=            -15.2604
 Traceless Quadrupole moment (field-independent basis, Debye-Ang):
   XX=             -3.3372   YY=              0.0583   ZZ=              3.2789
   XY=              2.9363   XZ=              1.8614   YZ=            -15.2604
 Octapole moment (field-independent basis, Debye-Ang**2):
  XXX=            -11.2845  YYY=            -19.8143  ZZZ=             28.0479  XYY=             25.2155
  XXY=             37.0966  XXZ=             21.1066  XZZ=             -0.8124  YZZ=            -15.1997
  YYZ=             12.5125  XYZ=              8.5091
 Hexadecapole moment (field-independent basis, Debye-Ang**3):
 XXXX=          -2728.9971 YYYY=          -1566.4474 ZZZZ=           -817.8020 XXXY=            -13.3908
 XXXZ=            -32.8787 YYYX=             84.9515 YYYZ=            -61.4598 ZZZX=              3.5863
 ZZZY=            -51.5151 XXYY=           -658.9857 XXZZ=           -603.0772 YYZZ=           -387.1657
 XXYZ=            -21.7149 YYXZ=             18.1172 ZZXY=             -4.1729
 N-N= 1.409450848346D+03 E-N=-6.483548356790D+03  KE= 1.548348994811D+03
  Exact polarizability:   0.000   0.000   0.000   0.000   0.000   0.000
 Approx polarizability: 203.955 -11.409 193.493 -16.961  -8.828 188.223
   1 Symmetry operations used in ECPInt.
 ECPInt:  NShTT=   27028 NPrTT=   85497 LenC2=   24873 LenP2D=   56625.
 LDataN:  DoStor=T MaxTD1= 8 Len=  415
 D2PCM: PCM CHGder 2nd derivatives, FixD1E=F FixD2E=F DoIter=F DoCFld=F I1PDM=0
 Calling FoFJK, ICntrl=    100147 FMM=F ISym2X=0 I1Cent= 0 IOpClX= 0 NMat=1 NMatS=1 NMatT=0.
 ***** Axes restored to original set *****
 -------------------------------------------------------------------
 Center     Atomic                   Forces (Hartrees/Bohr)
 Number     Number              X              Y              Z
 -------------------------------------------------------------------
      1        6           0.000000718    0.000007203   -0.000005464
      2        6           0.000011023   -0.000009081   -0.000005378
      3        8          -0.000005356    0.000013714    0.000000642
      4        6          -0.000001706   -0.000007609   -0.000007664
      5        6           0.000001956    0.000006781   -0.000000503
      6        1          -0.000001130    0.000001210    0.000004724
      7        1          -0.000008173    0.000001390   -0.000004602
      8        1           0.000005779    0.000000393   -0.000002293
      9        7           0.000001122   -0.000000512   -0.000007865
     10        1          -0.000003845   -0.000013446    0.000000921
     11        1           0.000004892    0.000007685    0.000002397
     12       17           0.000007236    0.000001553    0.000000288
     13        6           0.000001056   -0.000007250    0.000026900
     14        6          -0.000005072   -0.000000269   -0.000003803
     15        6           0.000002308   -0.000010567    0.000006028
     16        6          -0.000001549   -0.000000175   -0.000004273
     17        6          -0.000003001    0.000000737   -0.000001235
     18        6          -0.000000313    0.000003592   -0.000002800
     19        1           0.000001887    0.000000916    0.000002458
     20        1           0.000001800   -0.000001425   -0.000002446
     21        1           0.000000082   -0.000003508   -0.000000306
     22        1          -0.000000297   -0.000003261    0.000001015
     23        1           0.000001651   -0.000001170   -0.000001616
     24       17          -0.000001481    0.000002205    0.000003775
     25        8          -0.000002886    0.000002667    0.000004145
     26        6           0.000005596    0.000005847   -0.000000288
     27        1          -0.000004726    0.000000847   -0.000000355
     28        1          -0.000000113    0.000000244   -0.000002167
     29        1          -0.000007461    0.000001289   -0.000000235
 -------------------------------------------------------------------
 Cartesian Forces:  Max     0.000026900 RMS     0.000005403
 FormGI is forming the generalized inverse of G from B-inverse, IUseBI=4.

 GradGradGradGradGradGradGradGradGradGradGradGradGradGradGradGradGradGrad
 Berny optimization.
 Internal  Forces:  Max     0.000020206 RMS     0.000004368
 Search for a saddle point.
 Step number   1 out of a maximum of   70
 All quantities printed in internal units (Hartrees-Bohrs-Radians)
 Swapping is turned off.
 Second derivative matrix not updated -- analytic derivatives used.
 ITU=  0
     Eigenvalues ---   -0.02858   0.00093   0.00175   0.00356   0.00388
     Eigenvalues ---    0.00693   0.00863   0.01365   0.01436   0.01501
     Eigenvalues ---    0.01607   0.01758   0.01839   0.02122   0.02219
     Eigenvalues ---    0.02354   0.02425   0.02581   0.02816   0.02946
     Eigenvalues ---    0.03221   0.04210   0.04580   0.04654   0.04981
     Eigenvalues ---    0.06401   0.07715   0.08296   0.08500   0.08940
     Eigenvalues ---    0.09684   0.10779   0.10996   0.11730   0.12334
     Eigenvalues ---    0.12517   0.12574   0.12988   0.13595   0.15345
     Eigenvalues ---    0.17129   0.17441   0.18365   0.18444   0.18576
     Eigenvalues ---    0.18772   0.18839   0.19307   0.19542   0.19820
     Eigenvalues ---    0.23132   0.25265   0.26138   0.26589   0.27626
     Eigenvalues ---    0.29583   0.34139   0.34198   0.34359   0.34511
     Eigenvalues ---    0.35099   0.35136   0.35324   0.36230   0.36320
     Eigenvalues ---    0.36504   0.36566   0.36670   0.37905   0.39496
     Eigenvalues ---    0.40139   0.42653   0.43610   0.45124   0.45644
     Eigenvalues ---    0.47331   0.48197   0.48313   0.50207   0.51977
     Eigenvalues ---    0.79949
 Eigenvectors required to have negative eigenvalues:
                          R6        A44       D9        D6        D22
   1                    0.84183   0.18707   0.17965   0.15181   0.12925
                          D23       D39       R7        R2        D37
   1                    0.11972   0.11773  -0.11526  -0.11492   0.11298
 RFO step:  Lambda0=8.639897894D-10 Lambda=-4.60463049D-08.
 Linear search not attempted -- option 19 set.
 Iteration  1 RMS(Cart)=  0.00030670 RMS(Int)=  0.00000006
 Iteration  2 RMS(Cart)=  0.00000010 RMS(Int)=  0.00000001
 Variable       Old X    -DE/DX   Delta X   Delta X   Delta X     New X
                                 (Linear)    (Quad)   (Total)
    R1        2.72587   0.00000   0.00000   0.00003   0.00003   2.72590
    R2        2.63346   0.00001   0.00000  -0.00003  -0.00003   2.63343
    R3        3.31245  -0.00000   0.00000  -0.00000  -0.00000   3.31245
    R4        2.30480   0.00001   0.00000   0.00001   0.00001   2.30480
    R5        2.54677  -0.00000   0.00000  -0.00002  -0.00002   2.54675
    R6        3.62588  -0.00000   0.00000   0.00023   0.00023   3.62610
    R7        3.40112  -0.00000   0.00000  -0.00003  -0.00003   3.40109
    R8        2.84459   0.00000   0.00000  -0.00000  -0.00000   2.84459
    R9        2.05910  -0.00000   0.00000   0.00000   0.00000   2.05910
   R10        2.05374   0.00001   0.00000   0.00001   0.00001   2.05376
   R11        2.05832  -0.00000   0.00000  -0.00000  -0.00000   2.05832
   R12        2.75850  -0.00000   0.00000  -0.00002  -0.00002   2.75848
   R13        1.91673   0.00001   0.00000   0.00001   0.00001   1.91673
   R14        1.91662  -0.00001   0.00000  -0.00002  -0.00002   1.91660
   R15        3.88970  -0.00000   0.00000  -0.00075  -0.00075   3.88896
   R16        2.62127  -0.00000   0.00000  -0.00000  -0.00000   2.62126
   R17        2.63682   0.00001   0.00000   0.00003   0.00003   2.63684
   R18        2.62483  -0.00001   0.00000  -0.00001  -0.00001   2.62482
   R19        2.03874  -0.00000   0.00000  -0.00000  -0.00000   2.03873
   R20        2.61488   0.00000   0.00000   0.00001   0.00001   2.61489
   R21        2.04536  -0.00000   0.00000  -0.00001  -0.00001   2.04535
   R22        2.62478  -0.00000   0.00000  -0.00000  -0.00000   2.62478
   R23        2.04538  -0.00000   0.00000  -0.00000  -0.00000   2.04538
   R24        2.61130   0.00000   0.00000  -0.00000  -0.00000   2.61130
   R25        2.04560  -0.00000   0.00000  -0.00001  -0.00001   2.04559
   R26        2.04534   0.00000   0.00000   0.00001   0.00001   2.04534
   R27        2.68834  -0.00000   0.00000   0.00001   0.00001   2.68835
   R28        2.05986   0.00000   0.00000  -0.00001  -0.00001   2.05985
   R29        2.05999  -0.00000   0.00000   0.00000   0.00000   2.05999
   R30        2.05397  -0.00001   0.00000  -0.00002  -0.00002   2.05396
    A1        2.14630   0.00002   0.00000   0.00011   0.00011   2.14641
    A2        2.05570  -0.00001   0.00000  -0.00004  -0.00004   2.05566
    A3        2.06728  -0.00001   0.00000  -0.00006  -0.00006   2.06722
    A4        2.19621   0.00001   0.00000   0.00003   0.00003   2.19624
    A5        1.96994  -0.00000   0.00000  -0.00001  -0.00001   1.96992
    A6        2.11702  -0.00001   0.00000  -0.00001  -0.00001   2.11700
    A7        1.88214   0.00001   0.00000   0.00004   0.00004   1.88218
    A8        2.02478  -0.00001   0.00000  -0.00001  -0.00001   2.02478
    A9        2.09074   0.00000   0.00000   0.00004   0.00004   2.09078
   A10        1.65082  -0.00000   0.00000  -0.00002  -0.00002   1.65081
   A11        1.86245  -0.00001   0.00000  -0.00014  -0.00014   1.86231
   A12        1.89373   0.00000   0.00000   0.00006   0.00006   1.89379
   A13        1.89996   0.00000   0.00000  -0.00001  -0.00001   1.89995
   A14        1.90345  -0.00000   0.00000  -0.00004  -0.00004   1.90341
   A15        1.88837   0.00001   0.00000   0.00005   0.00005   1.88842
   A16        1.91353   0.00001   0.00000   0.00004   0.00004   1.91357
   A17        1.91998  -0.00001   0.00000  -0.00007  -0.00007   1.91991
   A18        1.93793   0.00000   0.00000   0.00003   0.00003   1.93796
   A19        1.97532  -0.00001   0.00000  -0.00014  -0.00014   1.97518
   A20        1.74936   0.00000   0.00000   0.00027   0.00027   1.74963
   A21        1.95915   0.00001   0.00000  -0.00013  -0.00013   1.95902
   A22        1.92627   0.00001   0.00000   0.00015   0.00015   1.92642
   A23        1.97211  -0.00000   0.00000  -0.00007  -0.00007   1.97204
   A24        1.86541  -0.00000   0.00000  -0.00002  -0.00002   1.86538
   A25        1.74147   0.00000   0.00000   0.00036   0.00036   1.74183
   A26        2.18073   0.00001   0.00000   0.00008   0.00008   2.18081
   A27        2.02930  -0.00001   0.00000  -0.00006  -0.00006   2.02924
   A28        2.07154  -0.00000   0.00000  -0.00002  -0.00002   2.07152
   A29        2.10270   0.00000   0.00000   0.00001   0.00001   2.10271
   A30        2.12593  -0.00000   0.00000   0.00003   0.00003   2.12595
   A31        2.05446  -0.00000   0.00000  -0.00003  -0.00003   2.05442
   A32        2.10281   0.00000   0.00000   0.00001   0.00001   2.10281
   A33        2.08154   0.00000   0.00000   0.00000   0.00000   2.08154
   A34        2.09884  -0.00000   0.00000  -0.00001  -0.00001   2.09883
   A35        2.08333   0.00000   0.00000  -0.00000  -0.00000   2.08333
   A36        2.09967   0.00000   0.00000  -0.00000  -0.00000   2.09967
   A37        2.10018  -0.00000   0.00000   0.00000   0.00000   2.10018
   A38        2.09709  -0.00000   0.00000  -0.00001  -0.00001   2.09708
   A39        2.09861   0.00000   0.00000   0.00001   0.00001   2.09862
   A40        2.08748   0.00000   0.00000  -0.00000  -0.00000   2.08748
   A41        2.10871   0.00000   0.00000   0.00001   0.00001   2.10872
   A42        2.08104  -0.00000   0.00000  -0.00001  -0.00001   2.08103
   A43        2.09341   0.00000   0.00000  -0.00000  -0.00000   2.09341
   A44        2.06966  -0.00000   0.00000  -0.00019  -0.00019   2.06947
   A45        2.02455   0.00000   0.00000   0.00001   0.00001   2.02455
   A46        1.93712  -0.00000   0.00000   0.00000   0.00000   1.93712
   A47        1.93641  -0.00000   0.00000  -0.00003  -0.00003   1.93638
   A48        1.84458  -0.00000   0.00000  -0.00001  -0.00001   1.84457
   A49        1.90495   0.00000   0.00000   0.00001   0.00001   1.90496
   A50        1.92008   0.00000   0.00000   0.00003   0.00003   1.92010
   A51        1.92021   0.00000   0.00000  -0.00000  -0.00000   1.92021
    D1        0.04001  -0.00000   0.00000  -0.00010  -0.00010   0.03991
    D2       -3.09512   0.00000   0.00000  -0.00004  -0.00004  -3.09516
    D3       -2.92016  -0.00000   0.00000  -0.00017  -0.00017  -2.92033
    D4        0.22790   0.00000   0.00000  -0.00011  -0.00011   0.22779
    D5       -1.67656  -0.00000   0.00000  -0.00027  -0.00027  -1.67683
    D6        2.78265  -0.00000   0.00000  -0.00027  -0.00027   2.78238
    D7        0.45554  -0.00001   0.00000  -0.00040  -0.00040   0.45513
    D8        1.28247  -0.00000   0.00000  -0.00020  -0.00020   1.28227
    D9       -0.54151  -0.00000   0.00000  -0.00019  -0.00019  -0.54170
   D10       -2.86862  -0.00001   0.00000  -0.00033  -0.00033  -2.86895
   D11       -3.12997  -0.00000   0.00000  -0.00010  -0.00010  -3.13007
   D12        0.01776   0.00000   0.00000  -0.00004  -0.00004   0.01771
   D13        0.83384   0.00001   0.00000  -0.00026  -0.00026   0.83358
   D14       -1.21718  -0.00000   0.00000  -0.00054  -0.00054  -1.21771
   D15        3.09171   0.00000   0.00000  -0.00061  -0.00061   3.09111
   D16        2.91442   0.00000   0.00000  -0.00027  -0.00027   2.91415
   D17        0.86341  -0.00001   0.00000  -0.00054  -0.00054   0.86286
   D18       -1.11089  -0.00001   0.00000  -0.00061  -0.00061  -1.11150
   D19       -1.43347   0.00000   0.00000  -0.00024  -0.00024  -1.43371
   D20        2.79870  -0.00000   0.00000  -0.00052  -0.00052   2.79818
   D21        0.82440  -0.00000   0.00000  -0.00058  -0.00058   0.82382
   D22       -2.17283  -0.00000   0.00000   0.00031   0.00031  -2.17252
   D23        1.03083  -0.00000   0.00000   0.00033   0.00033   1.03116
   D24       -0.03109   0.00000   0.00000   0.00026   0.00026  -0.03083
   D25       -3.11062   0.00000   0.00000   0.00028   0.00028  -3.11034
   D26        1.72932  -0.00000   0.00000   0.00021   0.00021   1.72953
   D27       -1.35021  -0.00000   0.00000   0.00023   0.00023  -1.34998
   D28       -0.75523   0.00000   0.00000   0.00042   0.00042  -0.75481
   D29        1.18923   0.00000   0.00000   0.00077   0.00077   1.19000
   D30       -3.00647   0.00000   0.00000   0.00080   0.00080  -3.00567
   D31        1.31827  -0.00000   0.00000   0.00040   0.00040   1.31867
   D32       -3.02045   0.00000   0.00000   0.00075   0.00075  -3.01970
   D33       -0.93297  -0.00000   0.00000   0.00078   0.00078  -0.93219
   D34       -2.84350  -0.00000   0.00000   0.00042   0.00042  -2.84308
   D35       -0.89904   0.00000   0.00000   0.00077   0.00077  -0.89827
   D36        1.18844  -0.00000   0.00000   0.00080   0.00080   1.18923
   D37       -1.04871  -0.00000   0.00000   0.00007   0.00007  -1.04864
   D38        1.21083  -0.00001   0.00000  -0.00031  -0.00031   1.21052
   D39       -2.95019  -0.00001   0.00000  -0.00018  -0.00018  -2.95037
   D40        1.12486  -0.00000   0.00000   0.00040   0.00040   1.12526
   D41       -3.10031   0.00000   0.00000   0.00008   0.00008  -3.10022
   D42        0.05684   0.00000   0.00000   0.00015   0.00015   0.05698
   D43       -0.02216   0.00000   0.00000   0.00006   0.00006  -0.02210
   D44        3.13498   0.00000   0.00000   0.00013   0.00013   3.13511
   D45        3.10240  -0.00000   0.00000  -0.00005  -0.00005   3.10235
[...]
 390,-0.00005179,-0.01243298,-0.00204342,0.02084883,-0.17790902,-0.0006
 1811,0.14580995,0.00027581,0.00015019,-0.00025465,-0.00018903,-0.00039
 536,-0.00008945,-0.00070220,-0.00011651,0.00095702,-0.00002300,-0.0018
 5947,-0.00121496,0.18591939,-0.00023843,-0.00020007,-0.00056754,-0.000
 11127,0.00099761,0.00026983,0.00045064,-0.00030186,0.00000560,-0.00222
 632,-0.00145203,0.00024741,-0.00002282,0.00003552,-0.00004536,0.000013
 81,-0.00000205,0.00002244,-0.00002046,-0.00000528,-0.00003084,0.000005
 45,-0.00001197,-0.00001626,0.00000499,-0.00008727,-0.00004552,0.000017
 05,-0.00001038,0.00001930,-0.00002810,0.00005459,-0.00001282,0.0001519
 3,-0.00079091,-0.00046589,-0.01076113,0.00296192,0.01306730,0.00302256
 ,0.00203210,0.00460435,0.00008211,-0.00111273,-0.00001849,0.00537737,0
 .00323832,0.00291563,0.01150143,0.00499776,-0.01300768,0.00020871,-0.0
 4758671,0.01466693,-0.00047188,0.00018770,0.00072207,-0.00040116,-0.00
 053858,-0.00038720,0.00051268,0.00002481,-0.00063955,-0.00216524,-0.00
 240183,-0.00166379,-0.00464666,0.04012508,-0.00027026,0.00014095,0.001
 06515,-0.00063161,-0.00070618,-0.00045899,0.00014834,0.00007415,0.0002
 6816,0.00085333,-0.00107473,-0.00123247,0.00002849,-0.00005657,0.00003
 173,-0.00002394,0.00001177,-0.00003987,0.00000811,0.00002243,0.0000381
 7,-0.00002287,0.00000857,0.00000998,-0.00020497,-0.00008659,0.00021052
 ,-0.00003514,0.00003228,-0.00004170,0.00007647,-0.00013592,0.00006797,
 -0.00000934,-0.00005327,-0.00000989,0.01776529,0.00003747,-0.01413934,
 -0.00095000,0.00498509,-0.00176124,-0.00095390,0.00000063,-0.00007048,
 0.00038814,0.00266498,0.00271277,-0.00328223,0.00108615,0.00578818,0.1
 4400932,0.01490477,-0.21559014,0.00089454,0.00006308,-0.00069692,-0.00
 010073,-0.00038085,-0.00019361,-0.00021232,0.00004641,0.00011297,-0.00
 075599,-0.00195416,-0.00022763,-0.15696774,-0.01976478,0.22422137,-0.1
 1717671,0.05185769,0.03311191,-0.01497344,0.00058083,0.00089019,0.0003
 9942,0.00466280,0.00243137,-0.03147570,0.02836199,0.00326225,-0.000040
 04,-0.00090195,-0.00043475,-0.00024479,0.00049285,0.00027383,0.0001224
 3,0.00015018,-0.00007860,0.00014156,0.00013891,0.00026834,0.00154415,-
 0.00312602,0.00355539,-0.00042720,-0.00045966,0.00092613,0.00034946,0.
 00029349,-0.00055682,-0.00782346,0.00026409,0.00041521,-0.00111395,-0.
 00544188,0.00200078,-0.00129544,0.00091857,-0.00120849,-0.00019191,0.0
 0032129,0.00051459,-0.00034497,0.00008707,0.00009993,0.00014259,0.0002
 7071,-0.00011453,-0.00069238,0.00011717,0.00064562,0.00002159,-0.00021
 517,-0.00001172,-0.00022997,0.00016108,0.00005210,-0.00010307,0.000007
 15,-0.00003659,-0.00012786,0.00012940,-0.00007134,0.00008107,-0.000123
 85,-0.00005104,0.17021611,0.05451930,-0.07112258,-0.02389852,0.0292523
 3,-0.00841334,-0.00466549,0.00025420,-0.00878892,-0.00476151,-0.003573
 06,-0.00693617,0.00497619,0.00002825,0.00054002,0.00026693,0.00019352,
 -0.00034278,-0.00011897,-0.00006436,-0.00007896,0.00003129,-0.00009557
 ,-0.00014879,-0.00022052,-0.00027022,0.00344743,-0.00387023,0.00046860
 ,0.00009891,-0.00052086,-0.00032069,0.00035793,-0.00039632,-0.00774329
 ,-0.00003140,0.00017185,-0.00096862,0.00072923,-0.00096951,0.00027164,
 -0.00001550,0.00037971,0.00014868,-0.00001582,-0.00009869,0.00007370,-
 0.00002017,-0.00007103,-0.00001773,-0.00002051,0.00011133,0.00030336,0
 .00008630,-0.00024773,-0.00006927,0.00004065,-0.00003827,0.00006609,-0
 .00005788,-0.00002198,0.00003174,-0.00001875,0.00000091,0.00004375,-0.
 00005083,0.00002268,-0.00010491,0.00000648,-0.00007920,-0.07456606,0.0
 9936401,0.03188809,-0.02171577,-0.02313657,0.01018244,-0.00532359,-0.0
 0535113,-0.00026934,-0.00415923,0.00229969,0.00591629,-0.00789444,-0.0
 0407237,-0.00046365,-0.00044749,0.00030923,0.00051233,-0.00022542,-0.0
 0075279,-0.00023129,-0.00011442,0.00009497,0.00008517,0.00013431,-0.00
 004425,-0.00071714,0.00050390,0.00052376,0.00005399,0.00028907,-0.0004
 5669,-0.00008741,-0.00029665,0.00062216,-0.00245435,0.00307960,0.00116
 496,-0.00142374,0.00029945,0.00375981,-0.00022029,0.00015031,-0.000111
 05,-0.00012848,-0.00010659,0.00005801,0.00005979,-0.00006671,0.0000593
 2,-0.00004138,-0.00036456,-0.00008376,0.00083408,-0.00021161,0.0001327
 0,0.00012422,0.00005564,0.00003053,0.00000039,0.00001688,-0.00001203,0
 .00004837,0.00004335,0.00002211,0.00004968,-0.00005196,0.00000757,0.00
 017713,0.00015632,0.00003381,-0.04440401,0.03667806,0.02510184,-0.0345
 0326,-0.03684525,0.00028397,-0.20012461,-0.02757661,0.03984321,-0.0909
 1112,0.00967946,0.04837418,0.01536993,0.01306372,-0.00846616,-0.000531
 78,-0.00181848,-0.00089406,-0.00025432,0.00035087,-0.00041606,0.000035
 06,0.00019580,-0.00000125,0.00022608,0.00023819,0.00052118,-0.00307173
 ,-0.00632394,0.00733474,-0.00034616,0.00039217,0.00018614,0.00087617,-
 0.00060099,0.00138338,-0.00103567,-0.00287102,-0.00006195,0.00098336,-
 0.00035703,0.00053360,-0.00049238,-0.00030064,-0.00075521,-0.00006384,
 0.00001751,0.00003027,-0.00035170,0.00029118,0.00013197,0.00018911,-0.
 00013905,-0.00011687,-0.00115320,-0.00038553,0.00014364,0.00022171,-0.
 00008866,0.00003540,-0.00016478,0.00007988,0.00007336,-0.00011775,0.00
 004645,-0.00000706,-0.00010905,0.00014540,-0.00007814,0.00013460,-0.00
 013052,0.00030570,0.00272123,0.00108247,0.00060849,0.39227462,-0.05685
 444,-0.03532959,0.00352379,-0.05667061,-0.13166321,-0.00207452,0.01436
 968,0.02641861,-0.00583658,0.01272943,0.00608759,-0.00950111,-0.000248
 74,-0.00136501,-0.00075693,-0.00007477,0.00023174,-0.00047740,-0.00004
 423,0.00014850,0.00009336,0.00014068,0.00028937,0.00051001,-0.00260777
 ,-0.00515707,0.00599380,-0.00022132,0.00048342,-0.00006127,0.00073779,
 -0.00053525,0.00118983,-0.00253749,-0.00405528,-0.00060877,0.00147575,
 -0.00088070,0.00029040,-0.00033248,0.00019240,-0.00029319,-0.00018522,
 0.00011924,0.00007382,-0.00027881,0.00012953,0.00009470,0.00003984,0.0
 0000378,-0.00010900,-0.00089939,0.00013756,0.00010775,0.00015694,-0.00
 011290,0.00000841,-0.00013260,0.00007120,0.00004979,-0.00008645,0.0000
 3385,-0.00000082,-0.00009977,0.00011401,-0.00005582,0.00007368,-0.0001
 7138,0.00028949,-0.00360366,-0.00923025,-0.00062180,0.11137016,0.43214
 708,-0.00326214,-0.00251812,0.01183950,0.03022336,-0.01099773,-0.08103
 651,0.04848622,-0.00591711,0.00744367,-0.00087752,-0.00320113,0.001878
 37,-0.00022627,-0.00031561,-0.00002755,0.00004161,0.00005347,0.0000007
 5,-0.00002903,0.00001897,0.00002470,0.00001930,0.00000936,-0.00004560,
 -0.00012379,0.00007564,0.00022523,0.00002845,0.00003162,-0.00005470,-0
 .00000228,0.00003128,0.00000447,-0.00001526,0.00075105,-0.00014056,-0.
 00001285,-0.00015777,0.00012582,-0.00013133,0.00030713,0.00021222,0.00
 006077,-0.00011127,0.00005727,0.00006552,-0.00002684,-0.00018585,-0.00
 022062,0.00026712,0.00014593,0.00052342,0.00010710,0.00010162,-0.00000
 891,-0.00001999,-0.00002995,0.00001567,-0.00000149,-0.00001043,0.00001
 732,-0.00001191,-0.00000869,0.00000741,-0.00002439,0.00000970,0.000056
 66,-0.00002570,-0.00008615,-0.00126097,-0.00294039,-0.00012333,-0.0797
 3986,0.08342970,0.13288688,-0.00246956,0.00197325,0.00299014,-0.022944
 71,-0.04924881,-0.00957225,0.00280215,-0.00261422,-0.00372629,-0.00110
 939,-0.00231115,0.00098423,0.00000264,0.00011011,0.00007762,0.00000634
 ,-0.00003667,0.00006646,0.00000188,-0.00001066,-0.00000129,-0.00001031
 ,-0.00000807,-0.00004709,0.00013516,0.00054419,-0.00064858,0.00000312,
 -0.00004146,-0.00000096,-0.00005251,0.00003578,-0.00008232,0.00008949,
 0.00026645,-0.00009173,-0.00004217,0.00005268,-0.00001867,0.00004621,0
 .00002602,0.00004896,0.00000582,0.00000265,-0.00000461,0.00002535,-0.0
 0002407,-0.00001020,-0.00000707,0.00001458,0.00001733,0.00011430,0.000
 02759,0.00000006,-0.00001680,0.00000662,-0.00000510,0.00001465,-0.0000
 0626,-0.00000595,0.00001024,-0.00000409,0.00000056,0.00000854,-0.00001
 299,0.00000575,-0.00000537,0.00001048,-0.00002383,0.00061093,0.0009880
 6,-0.00015297,-0.08293081,-0.00129003,0.00728987,0.61800979,0.00661137
 ,0.00732159,-0.00033245,-0.04166066,-0.03227393,0.00472300,0.01503217,
 -0.00346128,-0.00528995,-0.00463987,-0.00410562,0.00277010,0.00002701,
 0.00051995,0.00029089,0.00007059,-0.00016095,0.00023338,0.00000588,-0.
 00005791,-0.00001035,-0.00003511,-0.00006259,-0.00020878,0.00112040,0.
 00222237,-0.00250595,0.00008738,-0.00018171,-0.00001362,-0.00030362,0.
 00022677,-0.00048704,0.00042135,0.00102273,0.00011173,-0.00036659,0.00
 025710,-0.00018444,0.00014335,0.00005890,0.00022733,0.00005603,-0.0000
 3529,-0.00001257,0.00012836,-0.00009044,-0.00006699,-0.00006608,0.0000
 6001,0.00004699,0.00040607,0.00006627,-0.00002241,-0.00007620,0.000037
 74,-0.00001002,0.00005904,-0.00002808,-0.00002480,0.00004309,-0.000016
 14,0.00000091,0.00004062,-0.00004945,0.00003025,-0.00004988,0.00005112
 ,-0.00013311,-0.00015386,0.00073934,0.00005463,-0.02419805,-0.19879227
 ,-0.03876312,-0.02111778,0.47122778,0.00421572,0.00020088,0.00252960,-
 0.00663445,0.00768680,0.00371474,0.00256198,0.00095962,-0.00502210,-0.
 00084099,-0.00070329,0.00139034,-0.00002384,0.00005650,0.00002043,0.00
 002117,-0.00002463,0.00009525,0.00000154,-0.00000303,0.00000646,0.0000
 0215,0.00001153,-0.00003035,-0.00010602,0.00008247,-0.00015684,0.00001
 237,-0.00002058,-0.00000725,-0.00002180,-0.00000515,0.00000912,0.00043
 373,0.00085686,0.00008582,-0.00014944,0.00006474,0.00003302,0.00001518
 ,0.00001039,0.00005797,0.00002067,-0.00001989,-0.00000550,0.00003159,-
 0.00001313,-0.00002756,-0.00003172,0.00002222,0.00002707,0.00011302,0.
 00002135,-0.00000723,-0.00001059,0.00000496,-0.00000940,0.00001516,-0.
 00000488,-0.00000562,0.00000931,-0.00000492,-0.00000120,0.00001025,-0.
 00001214,0.00000607,-0.00000556,-0.00000281,-0.00003644,-0.00011892,0.
 00025624,-0.00008930,-0.00103472,-0.04747003,-0.08092244,-0.01817312,-
 0.03468157,0.58382671,-0.00039023,-0.00021647,-0.00069464,0.00073426,-
 0.00121536,0.00100082,-0.00029123,-0.00077749,0.00015357,0.00016325,0.
 00018527,-0.00021086,-0.00000576,-0.00001352,-0.00000742,0.00000773,-0
 .00000342,-0.00000253,-0.00000366,0.00000047,0.00000434,0.00000519,0.0
 0000916,0.00000611,-0.00000457,-0.00007127,0.00009699,-0.00000387,0.00
 000191,0.00000219,0.00000568,-0.00000450,0.00000853,-0.00003314,-0.000
 08158,0.00000980,0.00002259,-0.00002284,-0.00001179,0.00000360,0.00000
 329,0.00000647,-0.00000534,0.00000619,-0.00000055,-0.00000005,-0.00000
 275,0.00000449,0.00000137,0.,-0.00000754,-0.00001500,0.00001666,-0.000
 00125,0.00000013,-0.00000036,0.00000020,-0.00000021,0.00000056,0.,0.00
 000042,0.00000037,0.00000056,-0.00000038,0.00000072,0.00000039,-0.0000
 0375,-0.00000012,0.00000197,-0.00005909,0.00010264,0.00003979,0.008544
 92,-0.00648220,0.00675890,-0.15836337,0.10500694,-0.08450473,0.1623505
 8,-0.00159129,-0.00125790,-0.00059692,0.00964772,0.00186824,-0.0018793
 3,-0.00233517,0.00164592,0.00131208,0.00100591,0.00096876,-0.00079088,
 -0.00001564,-0.00010480,-0.00006588,-0.00000209,0.00002876,-0.00005303
 ,-0.00000512,0.00001224,0.00000564,0.00000825,0.00001635,0.00003750,-0
 .00014977,-0.00040953,0.00048671,-0.00001371,0.00003649,0.00000015,0.0
 0005298,-0.00003502,0.00007689,-0.00018054,-0.00034054,-0.00001737,0.0
 0008828,-0.00007164,0.00001392,-0.00002630,0.00000699,-0.00003144,-0.0
 0001321,0.00000866,0.00000384,-0.00002317,0.00001260,0.00000967,0.0000
 0850,0.00000233,-0.00001003,-0.00007434,0.00000532,0.00001309,0.000012
 94,-0.00000786,0.00000121,-0.00001085,0.00000576,0.00000404,-0.0000070
 9,0.00000255,-0.00000029,-0.00000898,0.00000946,-0.00000545,0.00000820
 ,-0.00001450,0.00001906,-0.00018163,-0.00014770,0.00008400,0.01063415,
 -0.03927971,0.01109257,0.09833213,-0.14337811,0.07677978,-0.11103139,0
 .17082962,-0.00017051,-0.00015772,-0.00041201,-0.00014037,0.00127569,0
 .00118567,-0.00037923,-0.00142425,-0.00009748,0.00014855,0.00019441,-0
 .00016412,0.00001140,-0.00000301,-0.00000249,-0.00000690,-0.00000168,-
 0.00001382,0.00000123,0.00000022,-0.00000160,-0.00000042,-0.00000031,0
 .00001008,-0.00002023,-0.00006066,0.00006374,-0.00000172,0.00000675,-0
 .00000057,0.00000766,-0.00000624,0.00001197,-0.00003681,-0.00007410,-0
 .00000253,0.00002589,-0.00000322,0.00000367,-0.00000647,-0.00001083,-0
 .00001760,-0.00000355,0.00000511,-0.00000184,-0.00000887,0.00000326,0.
 00000626,0.00000941,-0.00000871,-0.00000315,-0.00003091,-0.00000682,-0
 .00000549,0.00000313,-0.00000103,0.00000144,-0.00000284,0.00000114,0.0
 0000145,-0.00000178,0.00000131,0.00000048,-0.00000156,0.00000300,-0.00
 000085,-0.00000013,0.00000025,0.00000910,0.00001350,-0.00009121,-0.000
 00078,0.00801076,-0.00991073,0.00818084,-0.08345633,0.08131235,-0.1163
 9925,0.08987125,-0.08310077,0.11571192,-0.00021959,-0.00056137,0.00033
 419,0.00202395,-0.00071719,-0.00217553,-0.00055712,0.00052223,0.000267
 43,0.00024425,0.00021653,-0.00015881,-0.00001735,-0.00003018,-0.000023
 96,0.00000789,0.00000288,0.00000173,-0.00000235,0.00000492,0.00000439,
 0.00000513,0.00001226,0.00000827,-0.00006887,-0.00014061,0.00017549,-0
 .00000537,0.00000781,-0.00000013,0.00001493,-0.00001479,0.00003124,0.0
 0000063,-0.00000458,0.00000463,0.00001897,-0.00001356,0.00000406,-0.00
 001711,0.00002016,0.00001074,0.00000595,-0.00000925,0.00000703,0.00000
 260,0.00000360,-0.00001459,-0.00001821,0.00001910,0.00001011,0.0000134
 3,0.00001024,0.00000462,0.00000197,-0.00000331,-0.00000212,-0.00000092
 ,0.00000098,0.00000002,-0.00000052,-0.00000070,-0.00000097,-0.00000060
 ,0.00000044,0.00000034,-0.00000013,-0.00000764,-0.00000069,-0.00005803
 ,0.00008920,0.00003975,0.00023083,-0.00329253,-0.00827878,-0.05341424,
 0.00319922,0.03028265,0.00269920,-0.00138880,-0.02037045,0.04934297,-0
 .00106342,-0.00168986,0.00052539,0.00697704,0.00284991,-0.00322342,-0.
 00221854,0.00044801,0.00095298,0.00102398,0.00087382,-0.00055542,-0.00
 004363,-0.00013902,-0.00007162,0.00000505,0.00003039,-0.00003839,-0.00
 000320,0.00001423,0.00000662,0.00001745,0.00002709,0.00004098,-0.00025
 279,-0.00050624,0.00061475,-0.00001737,0.00003989,-0.00000091,0.000063
 39,-0.00004678,0.00011379,-0.00006398,-0.00012699,-0.00000945,0.000077
 74,-0.00005455,0.00003849,-0.00003799,0.00000969,-0.00002586,-0.000004
 92,-0.00000083,0.00000683,-0.00001998,0.00001645,-0.00000148,-0.000004
 73,0.00000695,0.00000088,-0.00005615,-0.00000086,0.00001033,0.00001423
 ,-0.00000933,-0.00000051,-0.00001038,0.00000568,0.00000394,-0.00000699
 ,0.00000225,-0.00000079,-0.00000754,0.00000842,-0.00000468,0.00000985,
 -0.00001556,0.00001997,-0.00009848,-0.00000387,0.00003842,-0.00411285,
 -0.01950257,-0.03889722,0.00235962,-0.05049712,-0.01466549,-0.00271297
 ,0.00414624,0.01886267,-0.00062618,0.06255353,-0.00082506,-0.00046249,
 -0.00022071,0.00552889,0.00063881,-0.00095231,-0.00070072,0.00205681,0
 .00131338,0.00042679,0.00031835,-0.00022071,0.00001011,-0.00002245,-0.
 00003108,-0.00000817,-0.00000413,-0.00002180,-0.00000210,0.00000370,0.
 00000221,0.00000236,0.00000871,0.00001994,-0.00011140,-0.00019622,0.00
 017960,-0.00000562,0.00001574,-0.00000058,0.00002962,-0.00002600,0.000
 04668,-0.00005579,-0.00010297,-0.00001056,0.00003289,-0.00003151,0.000
 01017,-0.00001196,0.00000025,-0.00000820,-0.00000524,0.00000363,0.0000
 0653,-0.00000428,0.00000375,0.00000152,-0.00000276,-0.00000513,-0.0000
 0789,-0.00002909,0.00000710,0.00000366,0.00000539,-0.00000292,0.000000
 80,-0.00000383,0.00000265,0.00000205,-0.00000288,0.00000160,0.00000031
 ,-0.00000249,0.00000399,-0.00000107,-0.00000070,-0.00000236,0.00001398
 ,-0.00010638,0.00005059,0.00003680,-0.00381778,-0.01221052,-0.00361374
 ,0.02654491,-0.02190094,-0.31403242,0.00295978,-0.00052724,-0.01360160
 ,-0.02968614,0.03171431,0.33667344,-0.00082546,-0.00053748,0.00004794,
 0.00224413,0.00125982,-0.00039162,-0.00033264,-0.00130038,-0.00012881,
 0.00050956,0.00040586,-0.00036759,0.,-0.00005975,-0.00002637,-0.000010
 48,0.00001806,-0.00002588,0.00000031,0.00000659,0.00000039,0.00000454,
 0.00000648,0.00002458,-0.00011315,-0.00024214,0.00029125,-0.00001020,0
 .00002103,0.00000055,0.00003162,-0.00002214,0.00005075,-0.00005369,-0.
 00010991,-0.00000395,0.00005172,-0.00003561,0.00001552,-0.00001284,-0.
 00000628,-0.00002848,-0.00000786,0.00000692,-0.00000058,-0.00001658,0.
 00000959,0.00000928,0.00000994,-0.00000693,-0.00000439,-0.00004798,-0.
 00000906,0.00000305,0.00000903,-0.00000403,0.00000161,-0.00000717,0.00
 000301,0.00000294,-0.00000482,0.00000212,0.00000006,-0.00000460,0.0000
 0594,-0.00000337,0.00000666,-0.00000360,0.00001693,0.00002746,-0.00012
 376,-0.00002596,-0.00564545,-0.00515144,0.00059514,-0.30052030,-0.0397
 9116,0.07390941,-0.01535927,-0.00273997,0.00653632,-0.00023228,0.00081
 372,-0.00015837,0.32030978,-0.00223971,-0.00055925,0.00040900,0.004021
 10,-0.00556488,-0.00371660,0.00000985,0.00272892,0.00078343,0.00067607
 ,0.00022693,-0.00050464,-0.00000960,-0.00008043,-0.00003538,-0.0000043
 4,0.00002320,-0.00003480,-0.00000284,0.00000883,0.00000435,0.00000479,
 0.00001174,0.00002775,-0.00013212,-0.00027335,0.00033167,-0.00001420,0
 .00002533,-0.00000120,0.00003878,-0.00002693,0.00005968,-0.00013471,-0
 .00024658,-0.00005015,0.00009290,-0.00005259,0.00001238,-0.00002007,0.
 00001330,-0.00001689,-0.00000976,0.00000402,0.00000534,-0.00001394,0.0
 0000849,0.00000441,-0.00000026,0.00000108,-0.00000438,-0.00004003,0.00
 000985,0.00000723,0.00000925,-0.00000609,0.00000086,-0.00000763,0.0000
 0404,0.00000267,-0.00000512,0.00000180,-0.00000010,-0.00000591,0.00000
 620,-0.00000349,0.00000564,-0.00000990,0.00001814,0.00005693,0.0000339
 5,0.00001630,-0.04183878,-0.02053268,0.00775479,-0.02802397,-0.0506208
 0,0.01061720,0.01730204,0.00544102,-0.00680489,0.00270115,0.00156105,0
 .00066490,0.04758449,0.06786373,-0.00040221,-0.00010734,0.00026887,0.0
 0079041,-0.00242502,-0.00089831,0.00030931,0.00127349,0.00082982,0.000
 05384,-0.00008745,-0.00003663,-0.00000648,-0.00001375,-0.00000436,0.00
 000116,-0.00000160,0.00000068,-0.00000151,0.00000059,0.00000204,0.0000
 0224,0.00000381,0.00000256,-0.00002300,-0.00003179,0.00004535,-0.00000
 208,0.00000313,-0.00000066,0.00000541,-0.00000385,0.00000946,-0.000012
 87,-0.00000117,-0.00001397,0.00001250,-0.00000489,0.00000816,-0.000008
 22,0.00000839,0.00000742,0.00000230,-0.00000415,0.00000436,0.00000325,
 0.00000008,-0.00000630,-0.00000824,0.00000581,0.00000164,0.00000607,0.
 00000643,0.00000206,0.00000038,-0.00000081,-0.00000087,0.00000013,0.00
 000042,-0.00000008,0.00000020,-0.00000004,-0.00000013,-0.00000018,-0.0
 0000009,0.00000038,-0.00000023,-0.00000086,0.00000099,-0.00000698,0.00
 006463,-0.00002324,-0.01241089,-0.00566636,0.00314851,0.07799539,0.014
 84656,-0.07504971,-0.01548484,-0.00286150,0.00553856,0.02952546,0.0045
 4491,-0.00558842,-0.08034034,-0.00954757,0.07175182\\-0.00000065,-0.00
 000715,0.00000547,-0.00001105,0.00000907,0.00000539,0.00000537,-0.0000
 1373,-0.00000065,0.00000172,0.00000763,0.00000765,-0.00000195,-0.00000
 676,0.00000052,0.00000113,-0.00000121,-0.00000473,0.00000817,-0.000001
 39,0.00000460,-0.00000578,-0.00000041,0.00000230,-0.00000113,0.0000005
 3,0.00000789,0.00000387,0.00001342,-0.00000094,-0.00000492,-0.00000770
 ,-0.00000239,-0.00000725,-0.00000159,-0.00000030,-0.00000109,0.0000072
 5,-0.00002689,0.00000509,0.00000026,0.00000380,-0.00000231,0.00001057,
 -0.00000602,0.00000154,0.00000017,0.00000428,0.00000301,-0.00000074,0.
 00000122,0.00000033,-0.00000359,0.00000278,-0.00000189,-0.00000092,-0.
 00000246,-0.00000180,0.00000143,0.00000245,-0.00000009,0.00000351,0.00
 000031,0.00000030,0.00000326,-0.00000102,-0.00000165,0.00000117,0.0000
 0162,0.00000146,-0.00000221,-0.00000377,0.00000289,-0.00000266,-0.0000
 0415,-0.00000560,-0.00000587,0.00000028,0.00000472,-0.00000084,0.00000
 036,0.00000011,-0.00000024,0.00000217,0.00000747,-0.00000128,0.0000002
 4\\\@


 CURIOUSER AND CURIOUSER

                  -- ALICE, IN WONDERLAND
 Job cpu time:       0 days 17 hours 54 minutes 35.9 seconds.
 Elapsed time:       0 days  1 hours  7 minutes 13.0 seconds.
 File lengths (MBytes):  RWF=   1046 Int=      0 D2E=      0 Chk=     34 Scr=      1
 Normal termination of Gaussian 16 at Wed Mar 31 09:35:55 2021.
