 Entering Gaussian System, Link 0=g16
 Initial command:
 /apps/gaussian/16/A.03/g16/l1.exe "/beegfs/scratch/user/q/tla25/Gau-110261.inp" -scrdir="/beegfs/scratch/user/q/tla25/"
 Entering Link 1 = /apps/gaussian/16/A.03/g16/l1.exe PID=    110262.
  
 Copyright (c) 1988,1990,1992,1993,1995,1998,2003,2009,2016,
            Gaussian, Inc.  All Rights Reserved.
  
 This is part of the Gaussian(R) 16 program.  It is based on
 the Gaussian(R) 09 system (copyright 2009, Gaussian, Inc.),
 the Gaussian(R) 03 system (copyright 2003, Gaussian, Inc.),
 the Gaussian(R) 98 system (copyright 1998, Gaussian, Inc.),
 the Gaussian(R) 94 system (copyright 1995, Gaussian, Inc.),
 the Gaussian 92(TM) system (copyright 1992, Gaussian, Inc.),
 the Gaussian 90(TM) system (copyright 1990, Gaussian, Inc.),
 the Gaussian 88(TM) system (copyright 1988, Gaussian, Inc.),
 the Gaussian 86(TM) system (copyright 1986, Carnegie Mellon
 University), and the Gaussian 82(TM) system (copyright 1983,
 Carnegie Mellon University). Gaussian is a federally registered
 trademark of Gaussian, Inc.
  
 This software contains proprietary and confidential information,
 including trade secrets, belonging to Gaussian, Inc.
  
 This software is provided under written license and may be
 used, copied, transmitted, or stored only in accord with that
 written license.
  
 The following legend is applicable only to US Government
 contracts under FAR:
  
                    RESTRICTED RIGHTS LEGEND
  
 Use, reproduction and disclosure by the US Government is
 subject to restrictions as set forth in subparagraphs (a)
 and (c) of the Commercial Computer Software - Restricted
 Rights clause in FAR 52.227-19.
  
 Gaussian, Inc.
 340 Quinnipiac St., Bldg. 40, Wallingford CT 06492
  
  
 ---------------------------------------------------------------
 Warning -- This program may not be used in any manner that
 competes with the business of Gaussian, Inc. or will provide
 assistance to any competitor of Gaussian, Inc.  The licensee
 of this program is prohibited from giving any competitor of
 Gaussian, Inc. access to this program.  By using this program,
 the user acknowledges that Gaussian, Inc. is engaged in the
 business of creating and licensing software in the field of
 computational chemistry and represents and warrants to the
 licensee that it is not a competitor of Gaussian, Inc. and that
 it will not use this program in any manner prohibited above.
 ---------------------------------------------------------------
  

 Cite this work as:
 Gaussian 16, Revision A.03,
 M. J. Frisch, G. W. Trucks, H. B. Schlegel, G. E. Scuseria, 
 M. A. Robb, J. R. Cheeseman, G. Scalmani, V. Barone, 
 G. A. Petersson, H. Nakatsuji, X. Li, M. Caricato, A. V. Marenich, 
 J. Bloino, B. G. Janesko, R. Gomperts, B. Mennucci, H. P. Hratchian, 
 J. V. Ortiz, A. F. Izmaylov, J. L. Sonnenberg, D. Williams-Young, 
 F. Ding, F. Lipparini, F. Egidi, J. Goings, B. Peng, A. Petrone, 
 T. Henderson, D. Ranasinghe, V. G. Zakrzewski, J. Gao, N. Rega, 
 G. Zheng, W. Liang, M. Hada, M. Ehara, K. Toyota, R. Fukuda, 
 J. Hasegawa, M. Ishida, T. Nakajima, Y. Honda, O. Kitao, H. Nakai, 
 T. Vreven, K. Throssell, J. A. Montgomery, Jr., J. E. Peralta, 
 F. Ogliaro, M. J. Bearpark, J. J. Heyd, E. N. Brothers, K. N. Kudin, 
 V. N. Staroverov, T. A. Keith, R. Kobayashi, J. Normand, 
 K. Raghavachari, A. P. Rendell, J. C. Burant, S. S. Iyengar, 
 J. Tomasi, M. Cossi, J. M. Millam, M. Klene, C. Adamo, R. Cammi, 
 J. W. Ochterski, R. L. Martin, K. Morokuma, O. Farkas, 
 J. B. Foresman, and D. J. Fox, Gaussian, Inc., Wallingford CT, 2016.
 
 ******************************************
 Gaussian 16:  ES64L-G16RevA.03 25-Dec-2016
                25-Mar-2021 
 ******************************************
 %nprocshared=16
 Will use up to   16 processors via shared memory.
 %mem=48GB
 ----------------------------------------------------------------------
 # wB97XD def2tzvp, opt=(ts, noeigen, calcfc, maxcycles=70, maxstep=3),
  freq=noraman, scrf=(iefpcm, solvent=water)
 ----------------------------------------------------------------------
 1/5=1,6=70,8=3,10=4,11=1,18=20,26=3,38=1/1,3;
 2/9=110,12=2,17=6,18=5,40=1/2;
 3/5=44,7=101,11=2,25=1,30=1,70=2201,71=2,72=1,74=-58,140=1/1,2,3;
 4//1;
 5/5=2,38=5,53=1/2;
 8/6=4,10=90,11=11/1;
 11/6=1,8=1,9=11,15=111,16=1/1,2,10;
 10/6=1,13=1/2;
 6/7=2,8=2,9=2,10=2,28=1/1;
 7/10=1,18=20,25=1/1,2,3,16;
 1/5=1,6=70,8=3,10=4,11=1,18=20,26=3/3(2);
 2/9=110/2;
 99//99;
 2/9=110/2;
 3/5=44,7=101,11=2,25=1,30=1,70=2205,71=1,72=1,74=-58/1,2,3;
 4/5=5,16=3,69=1/1;
 5/5=2,38=5,53=1/2;
 7//1,2,3,16;
 1/5=1,6=70,8=3,11=1,18=20,26=3/3(-5);
 2/9=110/2;
 6/7=2,8=2,9=2,10=2,19=2,28=1/1;
 99/9=1/99;
 ------------------------
 0_iteration/TS-833-0.out
 ------------------------
 Symbolic Z-matrix:
 Charge =  0 Multiplicity = 1
 C                     1.22214   0.65901  -0.08924 
 C                     0.85818   1.90316   0.47527 
 O                     1.60562   2.85573   0.69481 
 C                     0.335    -0.41967  -0.24786 
 C                     1.13894  -1.22109   2.33606 
 H                     1.51554  -0.20344   2.22186 
 H                     0.26632  -1.20691   2.98163 
 H                     1.91037  -1.84052   2.78821 
 N                     0.79133  -1.73285   1.00996 
 H                     1.60177  -2.14728   0.56275 
 H                     0.06368  -2.4398    1.02888 
 Cl                    0.61673  -1.47584  -1.6904 
 C                    -1.13838  -0.14513  -0.10294 
 C                    -1.76704   0.52526  -1.15315 
 C                    -3.10982   0.84473  -1.08128 
 C                    -3.8517    0.49417   0.03954 
 C                    -3.23636  -0.17517   1.08217 
 C                    -1.88627  -0.49395   1.01216 
 H                    -1.1935    0.80271  -2.02792 
 H                    -3.57884   1.36976  -1.90318 
 H                    -4.90341   0.74292   0.09655 
 H                    -3.80138  -0.45313   1.96215 
 H                    -1.4413   -1.00375   1.85206 
 Cl                    2.91286   0.40823  -0.45856 
 H                    -0.21468   1.98492   0.71676 
 
 Add virtual bond connecting atoms N9         and C4         Dist= 3.54D+00.

 GradGradGradGradGradGradGradGradGradGradGradGradGradGradGradGradGradGrad
 Berny optimization.
 Initialization pass.
                           ----------------------------
                           !    Initial Parameters    !
                           ! (Angstroms and Degrees)  !
 --------------------------                            --------------------------
 ! Name  Definition              Value          Derivative Info.                !
 --------------------------------------------------------------------------------
 ! R1    R(1,2)                  1.4139         calculate D2E/DX2 analytically  !
 ! R2    R(1,4)                  1.4056         calculate D2E/DX2 analytically  !
 ! R3    R(1,24)                 1.7487         calculate D2E/DX2 analytically  !
 ! R4    R(2,3)                  1.2306         calculate D2E/DX2 analytically  !
 ! R5    R(2,25)                 1.1027         calculate D2E/DX2 analytically  !
 ! R6    R(4,9)                  1.8748         calculate D2E/DX2 analytically  !
 ! R7    R(4,12)                 1.8099         calculate D2E/DX2 analytically  !
 ! R8    R(4,13)                 1.5057         calculate D2E/DX2 analytically  !
 ! R9    R(5,6)                  1.0911         calculate D2E/DX2 analytically  !
 ! R10   R(5,7)                  1.0856         calculate D2E/DX2 analytically  !
 ! R11   R(5,8)                  1.0878         calculate D2E/DX2 analytically  !
 ! R12   R(5,9)                  1.4633         calculate D2E/DX2 analytically  !
 ! R13   R(9,10)                 1.0142         calculate D2E/DX2 analytically  !
 ! R14   R(9,11)                 1.0147         calculate D2E/DX2 analytically  !
 ! R15   R(13,14)                1.3956         calculate D2E/DX2 analytically  !
 ! R16   R(13,18)                1.3873         calculate D2E/DX2 analytically  !
 ! R17   R(14,15)                1.3821         calculate D2E/DX2 analytically  !
 ! R18   R(14,19)                1.0822         calculate D2E/DX2 analytically  !
 ! R19   R(15,16)                1.3891         calculate D2E/DX2 analytically  !
 ! R20   R(15,20)                1.0822         calculate D2E/DX2 analytically  !
 ! R21   R(16,17)                1.3834         calculate D2E/DX2 analytically  !
 ! R22   R(16,21)                1.0822         calculate D2E/DX2 analytically  !
 ! R23   R(17,18)                1.389          calculate D2E/DX2 analytically  !
 ! R24   R(17,22)                1.0821         calculate D2E/DX2 analytically  !
 ! R25   R(18,23)                1.0786         calculate D2E/DX2 analytically  !
 ! A1    A(2,1,4)              123.9091         calculate D2E/DX2 analytically  !
 ! A2    A(2,1,24)             117.3492         calculate D2E/DX2 analytically  !
 ! A3    A(4,1,24)             118.4467         calculate D2E/DX2 analytically  !
 ! A4    A(1,2,3)              126.5875         calculate D2E/DX2 analytically  !
 ! A5    A(1,2,25)             113.7736         calculate D2E/DX2 analytically  !
 ! A6    A(3,2,25)             119.6356         calculate D2E/DX2 analytically  !
 ! A7    A(1,4,9)              107.9505         calculate D2E/DX2 analytically  !
 ! A8    A(1,4,12)             116.0733         calculate D2E/DX2 analytically  !
 ! A9    A(1,4,13)             117.8268         calculate D2E/DX2 analytically  !
 ! A10   A(9,4,12)              95.0545         calculate D2E/DX2 analytically  !
 ! A11   A(9,4,13)             107.5366         calculate D2E/DX2 analytically  !
 ! A12   A(12,4,13)            109.5983         calculate D2E/DX2 analytically  !
 ! A13   A(6,5,7)              109.1181         calculate D2E/DX2 analytically  !
 ! A14   A(6,5,8)              109.2594         calculate D2E/DX2 analytically  !
 ! A15   A(6,5,9)              108.26           calculate D2E/DX2 analytically  !
 ! A16   A(7,5,8)              109.2883         calculate D2E/DX2 analytically  !
 ! A17   A(7,5,9)              110.643          calculate D2E/DX2 analytically  !
 ! A18   A(8,5,9)              110.2433         calculate D2E/DX2 analytically  !
 ! A19   A(4,9,5)              114.8891         calculate D2E/DX2 analytically  !
 ! A20   A(4,9,10)             100.6546         calculate D2E/DX2 analytically  !
 ! A21   A(4,9,11)             109.0243         calculate D2E/DX2 analytically  !
 ! A22   A(5,9,10)             110.6521         calculate D2E/DX2 analytically  !
 ! A23   A(5,9,11)             113.3977         calculate D2E/DX2 analytically  !
 ! A24   A(10,9,11)            107.2517         calculate D2E/DX2 analytically  !
 ! A25   A(4,13,14)            117.1263         calculate D2E/DX2 analytically  !
 ! A26   A(4,13,18)            123.9903         calculate D2E/DX2 analytically  !
 ! A27   A(14,13,18)           118.8709         calculate D2E/DX2 analytically  !
 ! A28   A(13,14,15)           120.6339         calculate D2E/DX2 analytically  !
 ! A29   A(13,14,19)           119.5192         calculate D2E/DX2 analytically  !
 ! A30   A(15,14,19)           119.8454         calculate D2E/DX2 analytically  !
 ! A31   A(14,15,16)           120.1657         calculate D2E/DX2 analytically  !
 ! A32   A(14,15,20)           119.5843         calculate D2E/DX2 analytically  !
 ! A33   A(16,15,20)           120.2501         calculate D2E/DX2 analytically  !
 ! A34   A(15,16,17)           119.5168         calculate D2E/DX2 analytically  !
 ! A35   A(15,16,21)           120.2332         calculate D2E/DX2 analytically  !
 ! A36   A(17,16,21)           120.25           calculate D2E/DX2 analytically  !
 ! A37   A(16,17,18)           120.3587         calculate D2E/DX2 analytically  !
 ! A38   A(16,17,22)           120.328          calculate D2E/DX2 analytically  !
 ! A39   A(18,17,22)           119.3131         calculate D2E/DX2 analytically  !
 ! A40   A(13,18,17)           120.4529         calculate D2E/DX2 analytically  !
 ! A41   A(13,18,23)           121.492          calculate D2E/DX2 analytically  !
 ! A42   A(17,18,23)           118.0493         calculate D2E/DX2 analytically  !
 ! D1    D(4,1,2,3)            176.3377         calculate D2E/DX2 analytically  !
 ! D2    D(4,1,2,25)            -4.3374         calculate D2E/DX2 analytically  !
 ! D3    D(24,1,2,3)             2.6871         calculate D2E/DX2 analytically  !
 ! D4    D(24,1,2,25)         -177.988          calculate D2E/DX2 analytically  !
 ! D5    D(2,1,4,9)           -107.6367         calculate D2E/DX2 analytically  !
 ! D6    D(2,1,4,12)           147.1967         calculate D2E/DX2 analytically  !
 ! D7    D(2,1,4,13)            14.3113         calculate D2E/DX2 analytically  !
 ! D8    D(24,1,4,9)            65.949          calculate D2E/DX2 analytically  !
 ! D9    D(24,1,4,12)          -39.2176         calculate D2E/DX2 analytically  !
 ! D10   D(24,1,4,13)         -172.103          calculate D2E/DX2 analytically  !
 ! D11   D(1,4,9,5)             41.1012         calculate D2E/DX2 analytically  !
 ! D12   D(1,4,9,10)           -77.7744         calculate D2E/DX2 analytically  !
 ! D13   D(1,4,9,11)           169.6392         calculate D2E/DX2 analytically  !
 ! D14   D(12,4,9,5)           160.604          calculate D2E/DX2 analytically  !
 ! D15   D(12,4,9,10)           41.7285         calculate D2E/DX2 analytically  !
 ! D16   D(12,4,9,11)          -70.8579         calculate D2E/DX2 analytically  !
 ! D17   D(13,4,9,5)           -86.9944         calculate D2E/DX2 analytically  !
 ! D18   D(13,4,9,10)          154.13           calculate D2E/DX2 analytically  !
 ! D19   D(13,4,9,11)           41.5436         calculate D2E/DX2 analytically  !
 ! D20   D(1,4,13,14)           74.3557         calculate D2E/DX2 analytically  !
 ! D21   D(1,4,13,18)         -104.3351         calculate D2E/DX2 analytically  !
 ! D22   D(9,4,13,14)         -163.4848         calculate D2E/DX2 analytically  !
 ! D23   D(9,4,13,18)           17.8244         calculate D2E/DX2 analytically  !
 ! D24   D(12,4,13,14)         -61.3277         calculate D2E/DX2 analytically  !
 ! D25   D(12,4,13,18)         119.9814         calculate D2E/DX2 analytically  !
 ! D26   D(6,5,9,4)            -26.4345         calculate D2E/DX2 analytically  !
 ! D27   D(6,5,9,10)            86.6872         calculate D2E/DX2 analytically  !
 ! D28   D(6,5,9,11)          -152.7541         calculate D2E/DX2 analytically  !
 ! D29   D(7,5,9,4)             93.0932         calculate D2E/DX2 analytically  !
 ! D30   D(7,5,9,10)          -153.7851         calculate D2E/DX2 analytically  !
 ! D31   D(7,5,9,11)           -33.2264         calculate D2E/DX2 analytically  !
 ! D32   D(8,5,9,4)           -145.8988         calculate D2E/DX2 analytically  !
 ! D33   D(8,5,9,10)           -32.7771         calculate D2E/DX2 analytically  !
 ! D34   D(8,5,9,11)            87.7816         calculate D2E/DX2 analytically  !
 ! D35   D(4,13,14,15)        -178.3404         calculate D2E/DX2 analytically  !
 ! D36   D(4,13,14,19)           1.2164         calculate D2E/DX2 analytically  !
 ! D37   D(18,13,14,15)          0.4201         calculate D2E/DX2 analytically  !
 ! D38   D(18,13,14,19)        179.9769         calculate D2E/DX2 analytically  !
 ! D39   D(4,13,18,17)         178.3977         calculate D2E/DX2 analytically  !
 ! D40   D(4,13,18,23)          -0.7014         calculate D2E/DX2 analytically  !
 ! D41   D(14,13,18,17)         -0.2718         calculate D2E/DX2 analytically  !
 ! D42   D(14,13,18,23)       -179.3709         calculate D2E/DX2 analytically  !
 ! D43   D(13,14,15,16)         -0.3165         calculate D2E/DX2 analytically  !
 ! D44   D(13,14,15,20)        179.6564         calculate D2E/DX2 analytically  !
 ! D45   D(19,14,15,16)       -179.8718         calculate D2E/DX2 analytically  !
 ! D46   D(19,14,15,20)          0.1011         calculate D2E/DX2 analytically  !
 ! D47   D(14,15,16,17)          0.0592         calculate D2E/DX2 analytically  !
 ! D48   D(14,15,16,21)       -179.94           calculate D2E/DX2 analytically  !
 ! D49   D(20,15,16,17)       -179.9135         calculate D2E/DX2 analytically  !
 ! D50   D(20,15,16,21)          0.0873         calculate D2E/DX2 analytically  !
 ! D51   D(15,16,17,18)          0.0882         calculate D2E/DX2 analytically  !
 ! D52   D(15,16,17,22)        179.9002         calculate D2E/DX2 analytically  !
 ! D53   D(21,16,17,18)       -179.9127         calculate D2E/DX2 analytically  !
 ! D54   D(21,16,17,22)         -0.1006         calculate D2E/DX2 analytically  !
 ! D55   D(16,17,18,13)          0.0208         calculate D2E/DX2 analytically  !
 ! D56   D(16,17,18,23)        179.1503         calculate D2E/DX2 analytically  !
 ! D57   D(22,17,18,13)       -179.7932         calculate D2E/DX2 analytically  !
 ! D58   D(22,17,18,23)         -0.6637         calculate D2E/DX2 analytically  !
 --------------------------------------------------------------------------------
 Trust Radius=3.00D-02 FncErr=1.00D-07 GrdErr=1.00D-06 EigMax=2.50D+02 EigMin=1.00D-04
 Number of steps in this run=     70 maximum allowed number of steps=    150.
 Search for a saddle point of order  1.
 GradGradGradGradGradGradGradGradGradGradGradGradGradGradGradGradGradGrad

                          Input orientation:                          
 ---------------------------------------------------------------------
 Center     Atomic      Atomic             Coordinates (Angstroms)
 Number     Number       Type             X           Y           Z
 ---------------------------------------------------------------------
      1          6           0        1.222140    0.659010   -0.089240
      2          6           0        0.858180    1.903160    0.475270
      3          8           0        1.605620    2.855730    0.694810
      4          6           0        0.335000   -0.419670   -0.247860
      5          6           0        1.138940   -1.221090    2.336060
      6          1           0        1.515540   -0.203440    2.221860
      7          1           0        0.266320   -1.206910    2.981630
      8          1           0        1.910370   -1.840520    2.788210
      9          7           0        0.791330   -1.732850    1.009960
     10          1           0        1.601770   -2.147280    0.562750
     11          1           0        0.063680   -2.439800    1.028880
     12         17           0        0.616730   -1.475840   -1.690400
     13          6           0       -1.138380   -0.145130   -0.102940
     14          6           0       -1.767040    0.525260   -1.153150
     15          6           0       -3.109820    0.844730   -1.081280
     16          6           0       -3.851700    0.494170    0.039540
     17          6           0       -3.236360   -0.175170    1.082170
     18          6           0       -1.886270   -0.493950    1.012160
     19          1           0       -1.193500    0.802710   -2.027920
     20          1           0       -3.578840    1.369760   -1.903180
     21          1           0       -4.903410    0.742920    0.096550
     22          1           0       -3.801380   -0.453130    1.962150
     23          1           0       -1.441300   -1.003750    1.852060
     24         17           0        2.912860    0.408230   -0.458560
     25          1           0       -0.214680    1.984920    0.716760
 ---------------------------------------------------------------------
                    Distance matrix (angstroms):
                    1          2          3          4          5
     1  C    0.000000
     2  C    1.413877   0.000000
     3  O    2.363762   1.230550   0.000000
     4  C    1.405606   2.488408   3.637492   0.000000
     5  C    3.069817   3.647232   4.419497   2.822275   0.000000
     6  H    2.484167   2.814332   3.420310   2.745896   1.091092
     7  H    3.718265   4.037905   4.850599   3.324766   1.085554
     8  H    3.873116   4.524592   5.150724   3.703826   1.087767
     9  N    2.667364   3.675722   4.670916   1.874777   1.463309
    10  H    2.905938   4.119059   5.004754   2.290509   2.053453
    11  H    3.492112   4.449609   5.525561   2.405121   2.085703
    12  Cl   2.736388   4.020705   5.042780   1.809914   4.068167
    13  C    2.493769   2.918231   4.143803   1.505730   3.506080
    14  C    3.175687   3.382623   4.496764   2.476089   4.865084
    15  C    4.447978   4.391827   5.425310   3.762988   5.830762
    16  C    5.078150   4.935391   5.982365   4.294899   5.755224
    17  C    4.684686   4.631743   5.725485   3.818818   4.670058
    18  C    3.493510   3.683258   4.849161   2.554840   3.381322
    19  H    3.100717   3.418529   4.411714   2.645589   5.346061
    20  H    5.181212   5.062478   5.986341   4.610888   6.851358
    21  H    6.128941   5.889440   6.869451   5.376911   6.736671
    22  H    5.539026   5.429034   6.464546   4.689872   5.013615
    23  H    3.691521   3.953895   5.051587   2.811771   2.634223
    24  Cl   1.748663   2.707132   3.004895   2.715727   3.689360
    25  H    2.114740   1.102738   2.017990   2.648527   3.838349
                    6          7          8          9         10
     6  H    0.000000
     7  H    1.773345   0.000000
     8  H    1.776703   1.772505   0.000000
     9  N    2.081412   2.107067   2.103810   0.000000
    10  H    2.557068   2.918682   2.267600   1.014180   0.000000
    11  H    2.921028   2.318257   2.620046   1.014697   1.633575
    12  Cl   4.211014   4.692864   4.675943   2.718176   2.549082
    13  C    3.528652   3.551779   4.530781   2.735541   3.458348
    14  C    4.764140   4.922537   5.886814   4.040218   4.629866
    15  C    5.779563   5.666991   6.883736   5.122126   5.818422
    16  C    5.835790   5.339256   6.797604   5.240139   6.082051
    17  C    4.886742   4.115969   5.672107   4.319012   5.250383
    18  C    3.622165   3.003459   4.402508   2.950325   3.886115
    19  H    5.139248   5.591533   6.309975   4.426887   4.819496
    20  H    6.741188   6.729476   7.902308   6.100079   6.729718
    21  H    6.827551   6.233108   7.768320   6.276450   7.133580
    22  H    5.329112   4.260717   5.935597   4.861824   5.832880
    23  H    3.085474   2.057467   3.579141   2.495066   3.497178
    24  Cl   3.084039   4.631172   4.074724   3.352859   3.048387
    25  H    3.169843   3.943194   4.841563   3.862620   4.516446
                   11         12         13         14         15
    11  H    0.000000
    12  Cl   2.937612   0.000000
    13  C    2.826920   2.715001   0.000000
    14  C    4.111493   3.158385   1.395556   0.000000
    15  C    5.031105   4.432070   2.413203   1.382130   0.000000
    16  C    4.991711   5.180782   2.791256   2.401933   1.389070
    17  C    4.002706   4.921909   2.409753   2.765169   2.395146
    18  C    2.754799   3.812210   1.387250   2.396158   2.769771
    19  H    4.630162   2.929615   2.146389   1.082196   2.137797
    20  H    6.031391   5.074005   3.389926   2.135028   1.082200
    21  H    5.972514   6.211927   3.873484   3.383185   2.148165
    22  H    4.444833   5.822951   3.383937   3.847191   3.380113
    23  H    2.237148   4.124000   2.156621   3.387516   3.847768
    24  Cl   4.294366   3.215488   4.104293   4.732612   6.070501
    25  H    4.444440   4.296804   2.462162   2.834959   3.593719
                   16         17         18         19         20
    16  C    0.000000
    17  C    1.383379   0.000000
    18  C    2.405262   1.388980   0.000000
    19  H    3.381659   3.847361   3.376884   0.000000
    20  H    2.148318   3.378819   3.851937   2.454985   0.000000
    21  H    1.082229   2.143220   3.386934   4.275556   2.479180
    22  H    2.143907   1.082069   2.138175   4.929384   4.279396
    23  H    3.367346   2.121678   1.078576   4.287067   4.929955
    24  Cl   6.783418   6.366091   5.099862   4.413694   6.719646
    25  H    3.988593   3.732300   3.004375   3.144674   4.308141
                   21         22         23         24         25
    21  H    0.000000
    22  H    2.474969   0.000000
    23  H    4.256627   2.425960   0.000000
    24  Cl   7.843102   7.189075   5.127510   0.000000
    25  H    4.889930   4.512150   3.424274   3.694433   0.000000
 Stoichiometry    C10H11Cl2NO
 Framework group  C1[X(C10H11Cl2NO)]
 Deg. of freedom    69
 Full point group                 C1      NOp   1
 Largest Abelian subgroup         C1      NOp   1
 Largest concise Abelian subgroup C1      NOp   1
                         Standard orientation:                         
 ---------------------------------------------------------------------
 Center     Atomic      Atomic             Coordinates (Angstroms)
 Number     Number       Type             X           Y           Z
 ---------------------------------------------------------------------
      1          6           0        1.222140    0.659011   -0.089240
      2          6           0        0.858180    1.903161    0.475270
      3          8           0        1.605620    2.855731    0.694810
      4          6           0        0.335000   -0.419669   -0.247860
      5          6           0        1.138940   -1.221089    2.336060
      6          1           0        1.515540   -0.203439    2.221860
      7          1           0        0.266320   -1.206909    2.981630
      8          1           0        1.910370   -1.840519    2.788210
      9          7           0        0.791330   -1.732849    1.009960
     10          1           0        1.601770   -2.147279    0.562750
     11          1           0        0.063680   -2.439799    1.028880
     12         17           0        0.616730   -1.475839   -1.690400
     13          6           0       -1.138380   -0.145129   -0.102940
     14          6           0       -1.767040    0.525261   -1.153150
     15          6           0       -3.109820    0.844731   -1.081280
     16          6           0       -3.851700    0.494171    0.039540
     17          6           0       -3.236360   -0.175169    1.082170
     18          6           0       -1.886270   -0.493949    1.012160
     19          1           0       -1.193500    0.802711   -2.027920
     20          1           0       -3.578840    1.369761   -1.903180
     21          1           0       -4.903410    0.742921    0.096550
     22          1           0       -3.801380   -0.453129    1.962150
     23          1           0       -1.441300   -1.003749    1.852060
     24         17           0        2.912860    0.408231   -0.458560
     25          1           0       -0.214680    1.984921    0.716760
 ---------------------------------------------------------------------
 Rotational constants (GHZ):           0.7682877           0.3979241           0.3734056
 Standard basis: def2TZVP (5D, 7F)
 There are   582 symmetry adapted cartesian basis functions of A   symmetry.
 There are   512 symmetry adapted basis functions of A   symmetry.
   512 basis functions,   838 primitive gaussians,   582 cartesian basis functions
    60 alpha electrons       60 beta electrons
       nuclear repulsion energy      1124.9178258504 Hartrees.
 NAtoms=   25 NActive=   25 NUniq=   25 SFac= 1.00D+00 NAtFMM=   60 NAOKFM=F Big=F
 Integral buffers will be    131072 words long.
 Raffenetti 2 integral format.
 Two-electron integral symmetry is turned on.
 Nuclear repulsion after empirical dispersion term =     1124.8983950234 Hartrees.
 Force inversion solution in PCM.
 ------------------------------------------------------------------------------
 Polarizable Continuum Model (PCM)
 =================================
 Model                : PCM.
 Atomic radii         : UFF (Universal Force Field).
 Polarization charges : Total charges.
 Charge compensation  : None.
 Solution method      : Matrix inversion.
 Cavity type          : Scaled VdW (van der Waals Surface) (Alpha=1.100).
 Cavity algorithm     : GePol (No added spheres)
                        Default sphere list used, NSphG=   25.
                        Lebedev-Laikov grids with approx.  5.0 points / Ang**2.
                        Smoothing algorithm: York/Karplus (Gamma=1.0000).
                        Polarization charges: spherical gaussians, with
                                              point-specific exponents (IZeta= 3).
                        Self-potential: point-specific (ISelfS= 7).
                        Self-field    : sphere-specific E.n sum rule (ISelfD= 2).
 1st derivatives      : Analytical E(r).r(x)/FMM algorithm (CHGder, D1EAlg=3).
                        Cavity 1st derivative terms included.
 2nd derivatives      : Analytical E(r).r(xy)/FMM algorithm (CHGder, D2EAlg=3).
                        Cavity 2nd derivative terms included.
 Solvent              : Water, Eps=  78.355300 Eps(inf)=   1.777849
 ------------------------------------------------------------------------------
 One-electron integrals computed using PRISM.
   1 Symmetry operations used in ECPInt.
 ECPInt:  NShTT=   20503 NPrTT=   65349 LenC2=   19219 LenP2D=   44955.
 LDataN:  DoStor=T MaxTD1= 6 Len=  172
 NBasis=   512 RedAO= T EigKep=  6.77D-06  NBF=   512
 NBsUse=   512 1.00D-06 EigRej= -1.00D+00 NBFU=   512
 ExpMin= 9.52D-02 ExpMax= 6.95D+04 ExpMxC= 2.37D+03 IAcc=3 IRadAn=         5 AccDes= 0.00D+00
 Harris functional with IExCor= 4639 and IRadAn=       5 diagonalized for initial guess.
 HarFok:  IExCor= 4639 AccDes= 0.00D+00 IRadAn=         5 IDoV= 1 UseB2=F ITyADJ=14
 ICtDFT=  3500011 ScaDFX=  1.000000  1.000000  1.000000  1.000000
 FoFCou: FMM=F IPFlag=           0 FMFlag=      100000 FMFlg1=           0
         NFxFlg=           0 DoJE=T BraDBF=F KetDBF=T FulRan=T
         wScrn=  0.000000 ICntrl=       500 IOpCl=  0 I1Cent=   200000004 NGrid=           0
         NMat0=    1 NMatS0=      1 NMatT0=    0 NMatD0=    1 NMtDS0=    0 NMtDT0=    0
 Petite list used in FoFCou.
 Requested convergence on RMS density matrix=1.00D-08 within 128 cycles.
 Requested convergence on MAX density matrix=1.00D-06.
 Requested convergence on             energy=1.00D-06.
 No special actions if energy rises.
 Inv3:  Mode=1 IEnd=    11430912.
 Iteration    1 A*A^-1 deviation from unit magnitude is 4.66D-15 for   1945.
 Iteration    1 A*A^-1 deviation from orthogonality  is 1.64D-15 for   1459    487.
 Iteration    1 A^-1*A deviation from unit magnitude is 4.44D-15 for   1945.
 Iteration    1 A^-1*A deviation from orthogonality  is 1.44D-15 for   1952   1877.
 Error on total polarization charges =  0.01438
 SCF Done:  E(RwB97XD) =  -1438.05392919     A.U. after   15 cycles
            NFock= 15  Conv=0.63D-08     -V/T= 2.0026
 DoSCS=F DFT=T ScalE2(SS,OS)=  1.000000  1.000000
 Range of M.O.s used for correlation:     1   512
 NBasis=   512 NAE=    60 NBE=    60 NFC=     0 NFV=     0
 NROrb=    512 NOA=    60 NOB=    60 NVA=   452 NVB=   452

 **** Warning!!: The largest alpha MO coefficient is  0.73315053D+02

   1 Symmetry operations used in ECPInt.
 ECPInt:  NShTT=   20503 NPrTT=   65349 LenC2=   19219 LenP2D=   44955.
 LDataN:  DoStor=T MaxTD1= 7 Len=  274
 Symmetrizing basis deriv contribution to polar:
 IMax=3 JMax=2 DiffMx= 0.00D+00
 G2DrvN: will do    26 centers at a time, making    1 passes.
 Calling FoFCou, ICntrl=  3107 FMM=F I1Cent=   0 AccDes= 0.00D+00.
 NEqPCM:  Using equilibrium solvation (IEInf=0, Eps=  78.3553, EpsInf=   1.7778)
 G2PCM: DoFxE=T DoFxN=T DoGrad=T DoDP/DQ/DG/TGxP=FFFF NFrqRd=   0 IEInf=0 SqF1=F DoCFld=F IF1Alg=4.
 End of G2Drv F.D. properties file   721 does not exist.
 End of G2Drv F.D. properties file   722 does not exist.
 End of G2Drv F.D. properties file   788 does not exist.
          IDoAtm=1111111111111111111111111
 NEqPCM:  Using equilibrium solvation (IEInf=0, Eps=  78.3553, EpsInf=   1.7778)
          Differentiating once with respect to nuclear coordinates.
 CalDSu exits because no D1Ps are significant.
          There are    78 degrees of freedom in the 1st order CPHF.  IDoFFX=6 NUNeed=     0.
     72 vectors produced by pass  0 Test12= 3.48D-14 1.28D-09 XBig12= 1.02D-01 1.03D-01.
 AX will form    72 AO Fock derivatives at one time.
     72 vectors produced by pass  1 Test12= 3.48D-14 1.28D-09 XBig12= 2.22D-02 4.27D-02.
     72 vectors produced by pass  2 Test12= 3.48D-14 1.28D-09 XBig12= 7.82D-04 8.21D-03.
     72 vectors produced by pass  3 Test12= 3.48D-14 1.28D-09 XBig12= 1.21D-05 8.04D-04.
     72 vectors produced by pass  4 Test12= 3.48D-14 1.28D-09 XBig12= 1.51D-07 4.35D-05.
     72 vectors produced by pass  5 Test12= 3.48D-14 1.28D-09 XBig12= 1.42D-09 4.24D-06.
     72 vectors produced by pass  6 Test12= 3.48D-14 1.28D-09 XBig12= 1.20D-11 3.95D-07.
     40 vectors produced by pass  7 Test12= 3.48D-14 1.28D-09 XBig12= 9.08D-14 2.92D-08.
      8 vectors produced by pass  8 Test12= 3.48D-14 1.28D-09 XBig12= 4.58D-15 1.37D-08.
      4 vectors produced by pass  9 Test12= 3.48D-14 1.28D-09 XBig12= 2.24D-15 6.35D-09.
      3 vectors produced by pass 10 Test12= 3.48D-14 1.28D-09 XBig12= 2.14D-15 7.70D-09.
      1 vectors produced by pass 11 Test12= 3.48D-14 1.28D-09 XBig12= 1.68D-16 1.92D-09.
 InvSVY:  IOpt=1 It=  1 EMax= 5.55D-16
 Solved reduced A of dimension   560 with    78 vectors.
 End of Minotr F.D. properties file   721 does not exist.
 End of Minotr F.D. properties file   722 does not exist.
 End of Minotr F.D. properties file   788 does not exist.

 **********************************************************************

            Population analysis using the SCF density.

 **********************************************************************

 Orbital symmetries:
       Occupied  (A) (A) (A) (A) (A) (A) (A) (A) (A) (A) (A) (A)
                 (A) (A) (A) (A) (A) (A) (A) (A) (A) (A) (A) (A)
                 (A) (A) (A) (A) (A) (A) (A) (A) (A) (A) (A) (A)
                 (A) (A) (A) (A) (A) (A) (A) (A) (A) (A) (A) (A)
                 (A) (A) (A) (A) (A) (A) (A) (A) (A) (A) (A) (A)
       Virtual   (A) (A) (A) (A) (A) (A) (A) (A) (A) (A) (A) (A)
                 (A) (A) (A) (A) (A) (A) (A) (A) (A) (A) (A) (A)
                 (A) (A) (A) (A) (A) (A) (A) (A) (A) (A) (A) (A)
                 (A) (A) (A) (A) (A) (A) (A) (A) (A) (A) (A) (A)
                 (A) (A) (A) (A) (A) (A) (A) (A) (A) (A) (A) (A)
                 (A) (A) (A) (A) (A) (A) (A) (A) (A) (A) (A) (A)
                 (A) (A) (A) (A) (A) (A) (A) (A) (A) (A) (A) (A)
                 (A) (A) (A) (A) (A) (A) (A) (A) (A) (A) (A) (A)
                 (A) (A) (A) (A) (A) (A) (A) (A) (A) (A) (A) (A)
                 (A) (A) (A) (A) (A) (A) (A) (A) (A) (A) (A) (A)
                 (A) (A) (A) (A) (A) (A) (A) (A) (A) (A) (A) (A)
                 (A) (A) (A) (A) (A) (A) (A) (A) (A) (A) (A) (A)
                 (A) (A) (A) (A) (A) (A) (A) (A) (A) (A) (A) (A)
                 (A) (A) (A) (A) (A) (A) (A) (A) (A) (A) (A) (A)
                 (A) (A) (A) (A) (A) (A) (A) (A) (A) (A) (A) (A)
                 (A) (A) (A) (A) (A) (A) (A) (A) (A) (A) (A) (A)
                 (A) (A) (A) (A) (A) (A) (A) (A) (A) (A) (A) (A)
                 (A) (A) (A) (A) (A) (A) (A) (A) (A) (A) (A) (A)
                 (A) (A) (A) (A) (A) (A) (A) (A) (A) (A) (A) (A)
                 (A) (A) (A) (A) (A) (A) (A) (A) (A) (A) (A) (A)
                 (A) (A) (A) (A) (A) (A) (A) (A) (A) (A) (A) (A)
                 (A) (A) (A) (A) (A) (A) (A) (A) (A) (A) (A) (A)
                 (A) (A) (A) (A) (A) (A) (A) (A) (A) (A) (A) (A)
                 (A) (A) (A) (A) (A) (A) (A) (A) (A) (A) (A) (A)
                 (A) (A) (A) (A) (A) (A) (A) (A) (A) (A) (A) (A)
                 (A) (A) (A) (A) (A) (A) (A) (A) (A) (A) (A) (A)
                 (A) (A) (A) (A) (A) (A) (A) (A) (A) (A) (A) (A)
                 (A) (A) (A) (A) (A) (A) (A) (A) (A) (A) (A) (A)
                 (A) (A) (A) (A) (A) (A) (A) (A) (A) (A) (A) (A)
                 (A) (A) (A) (A) (A) (A) (A) (A) (A) (A) (A) (A)
                 (A) (A) (A) (A) (A) (A) (A) (A) (A) (A) (A) (A)
                 (A) (A) (A) (A) (A) (A) (A) (A) (A) (A) (A) (A)
                 (A) (A) (A) (A) (A) (A) (A) (A) (A) (A) (A) (A)
                 (A) (A) (A) (A) (A) (A) (A) (A) (A) (A) (A) (A)
                 (A) (A) (A) (A) (A) (A) (A) (A) (A) (A) (A) (A)
                 (A) (A) (A) (A) (A) (A) (A) (A) (A) (A) (A) (A)
                 (A) (A) (A) (A) (A) (A) (A) (A) (A) (A) (A) (A)
                 (A) (A) (A) (A) (A) (A) (A) (A)
 The electronic state is 1-A.
 Alpha  occ. eigenvalues -- -101.70499-101.69386 -19.21272 -14.51745 -10.42771
 Alpha  occ. eigenvalues --  -10.35376 -10.32856 -10.32479 -10.32004 -10.30682
 Alpha  occ. eigenvalues --  -10.30292 -10.29989 -10.29939 -10.29887  -9.59097
 Alpha  occ. eigenvalues --   -9.57910  -7.33736  -7.32884  -7.32839  -7.32538
 Alpha  occ. eigenvalues --   -7.31703  -7.31683  -1.11727  -1.07039  -1.00242
 Alpha  occ. eigenvalues --   -0.97291  -0.94563  -0.88635  -0.86403  -0.83466
 Alpha  occ. eigenvalues --   -0.80685  -0.74889  -0.71927  -0.70464  -0.66402
 Alpha  occ. eigenvalues --   -0.63528  -0.60885  -0.59598  -0.58867  -0.57491
 Alpha  occ. eigenvalues --   -0.55962  -0.54222  -0.53623  -0.52078  -0.50286
 Alpha  occ. eigenvalues --   -0.49827  -0.49215  -0.48184  -0.47577  -0.46702
 Alpha  occ. eigenvalues --   -0.44776  -0.43884  -0.42347  -0.41055  -0.40374
 Alpha  occ. eigenvalues --   -0.39373  -0.35109  -0.34755  -0.32655  -0.28830
 Alpha virt. eigenvalues --    0.01733   0.03845   0.04421   0.08043   0.10338
 Alpha virt. eigenvalues --    0.12237   0.13238   0.13403   0.14443   0.14688
 Alpha virt. eigenvalues --    0.16125   0.16486   0.17932   0.18174   0.19792
 Alpha virt. eigenvalues --    0.20071   0.20692   0.21534   0.22757   0.24320
 Alpha virt. eigenvalues --    0.25232   0.25752   0.26034   0.26806   0.27220
 Alpha virt. eigenvalues --    0.27490   0.28811   0.29641   0.29850   0.30694
 Alpha virt. eigenvalues --    0.31504   0.31878   0.33238   0.33792   0.34117
 Alpha virt. eigenvalues --    0.35090   0.36170   0.36407   0.37933   0.38059
 Alpha virt. eigenvalues --    0.38860   0.39309   0.40222   0.40906   0.42289
 Alpha virt. eigenvalues --    0.42392   0.43165   0.43260   0.44117   0.44805
 Alpha virt. eigenvalues --    0.45109   0.45315   0.45901   0.46554   0.47022
 Alpha virt. eigenvalues --    0.47924   0.48319   0.48436   0.48754   0.49858
 Alpha virt. eigenvalues --    0.50621   0.51258   0.52099   0.52595   0.52993
 Alpha virt. eigenvalues --    0.53230   0.53879   0.54280   0.55274   0.55865
 Alpha virt. eigenvalues --    0.56984   0.57824   0.58093   0.58783   0.59412
 Alpha virt. eigenvalues --    0.60755   0.61177   0.61814   0.62677   0.64066
 Alpha virt. eigenvalues --    0.65229   0.65446   0.67546   0.69116   0.69897
 Alpha virt. eigenvalues --    0.70950   0.71933   0.73263   0.73545   0.74803
 Alpha virt. eigenvalues --    0.75377   0.76053   0.77964   0.78080   0.78928
 Alpha virt. eigenvalues --    0.79771   0.80482   0.81750   0.82143   0.82955
 Alpha virt. eigenvalues --    0.83438   0.84914   0.85338   0.87597   0.89069
 Alpha virt. eigenvalues --    0.90082   0.90962   0.92005   0.93233   0.94738
 Alpha virt. eigenvalues --    0.96035   0.96414   0.97193   0.98137   1.00482
 Alpha virt. eigenvalues --    1.02225   1.04002   1.04822   1.06270   1.07067
 Alpha virt. eigenvalues --    1.08666   1.10130   1.10538   1.12094   1.12453
 Alpha virt. eigenvalues --    1.14154   1.14793   1.17203   1.18295   1.19657
 Alpha virt. eigenvalues --    1.20904   1.23108   1.24069   1.25041   1.26519
 Alpha virt. eigenvalues --    1.28073   1.29121   1.29556   1.30880   1.32433
 Alpha virt. eigenvalues --    1.33117   1.33562   1.33977   1.36216   1.36879
 Alpha virt. eigenvalues --    1.38566   1.40028   1.41299   1.43129   1.45353
 Alpha virt. eigenvalues --    1.46747   1.48850   1.50749   1.51932   1.52868
 Alpha virt. eigenvalues --    1.53942   1.55740   1.56678   1.57705   1.58183
 Alpha virt. eigenvalues --    1.58664   1.59628   1.60952   1.61804   1.63251
 Alpha virt. eigenvalues --    1.64093   1.65744   1.67334   1.69233   1.69784
 Alpha virt. eigenvalues --    1.71079   1.71791   1.72346   1.74445   1.76772
 Alpha virt. eigenvalues --    1.77875   1.78235   1.79133   1.79784   1.80294
 Alpha virt. eigenvalues --    1.81253   1.82490   1.82878   1.83799   1.86955
 Alpha virt. eigenvalues --    1.87365   1.88831   1.89858   1.90104   1.92195
 Alpha virt. eigenvalues --    1.92426   1.94042   1.95003   1.96134   1.96691
 Alpha virt. eigenvalues --    1.97292   1.97575   1.98974   1.99604   2.00967
 Alpha virt. eigenvalues --    2.01494   2.02752   2.02884   2.05240   2.05377
 Alpha virt. eigenvalues --    2.06123   2.06261   2.08657   2.09860   2.11260
 Alpha virt. eigenvalues --    2.11973   2.13598   2.14130   2.14925   2.16363
 Alpha virt. eigenvalues --    2.17660   2.18260   2.19039   2.21267   2.21475
 Alpha virt. eigenvalues --    2.22687   2.23685   2.24620   2.24906   2.26275
 Alpha virt. eigenvalues --    2.26640   2.28416   2.29903   2.30791   2.31488
 Alpha virt. eigenvalues --    2.33587   2.34274   2.35650   2.36772   2.37202
 Alpha virt. eigenvalues --    2.39065   2.40471   2.41480   2.42230   2.44479
 Alpha virt. eigenvalues --    2.45125   2.45762   2.46662   2.47595   2.48507
 Alpha virt. eigenvalues --    2.50043   2.51651   2.53776   2.54919   2.56809
 Alpha virt. eigenvalues --    2.58799   2.59699   2.60554   2.63223   2.64117
 Alpha virt. eigenvalues --    2.64160   2.66912   2.67576   2.68852   2.69860
 Alpha virt. eigenvalues --    2.70332   2.71590   2.72705   2.73533   2.75712
 Alpha virt. eigenvalues --    2.76383   2.77115   2.77705   2.78218   2.79455
 Alpha virt. eigenvalues --    2.81505   2.82302   2.84128   2.84662   2.86679
 Alpha virt. eigenvalues --    2.86807   2.87549   2.88884   2.91368   2.93050
 Alpha virt. eigenvalues --    2.93241   2.94953   2.95878   2.95970   2.96927
 Alpha virt. eigenvalues --    2.98590   2.99293   3.00839   3.02323   3.04193
 Alpha virt. eigenvalues --    3.05007   3.05093   3.09546   3.09961   3.12103
 Alpha virt. eigenvalues --    3.12872   3.13765   3.15133   3.16260   3.16955
 Alpha virt. eigenvalues --    3.19298   3.19661   3.20966   3.21943   3.23218
 Alpha virt. eigenvalues --    3.24232   3.24431   3.26516   3.26871   3.27883
 Alpha virt. eigenvalues --    3.30246   3.30540   3.31268   3.33351   3.33865
 Alpha virt. eigenvalues --    3.34799   3.35544   3.36462   3.37689   3.39536
 Alpha virt. eigenvalues --    3.40649   3.41261   3.41775   3.43813   3.44810
 Alpha virt. eigenvalues --    3.45634   3.46790   3.47882   3.49272   3.49645
 Alpha virt. eigenvalues --    3.50801   3.52167   3.53507   3.54175   3.55490
 Alpha virt. eigenvalues --    3.56369   3.57632   3.58192   3.61069   3.61611
 Alpha virt. eigenvalues --    3.62711   3.64936   3.66248   3.67793   3.68648
 Alpha virt. eigenvalues --    3.71919   3.74326   3.74541   3.75678   3.77418
 Alpha virt. eigenvalues --    3.79173   3.85131   3.85528   3.85890   3.88010
 Alpha virt. eigenvalues --    3.92147   3.93362   3.94410   3.97655   3.99516
 Alpha virt. eigenvalues --    4.01468   4.03668   4.05303   4.10266   4.12594
 Alpha virt. eigenvalues --    4.13305   4.15417   4.17508   4.19714   4.22580
 Alpha virt. eigenvalues --    4.24677   4.25822   4.28025   4.29175   4.29976
 Alpha virt. eigenvalues --    4.30564   4.32000   4.33290   4.33930   4.36946
 Alpha virt. eigenvalues --    4.38741   4.40886   4.41955   4.44083   4.44682
 Alpha virt. eigenvalues --    4.46404   4.52192   4.55344   4.58292   4.61869
 Alpha virt. eigenvalues --    4.65752   4.71118   4.72966   4.76770   4.77405
 Alpha virt. eigenvalues --    4.81869   4.82087   4.88946   4.92199   4.95586
 Alpha virt. eigenvalues --    4.97977   4.99181   5.01442   5.03883   5.07775
 Alpha virt. eigenvalues --    5.13381   5.15218   5.17604   5.22088   5.23128
 Alpha virt. eigenvalues --    5.29903   5.32397   5.32430   5.35454   5.40618
 Alpha virt. eigenvalues --    5.49111   5.49844   5.54013   5.58960   5.61028
 Alpha virt. eigenvalues --    5.65287   5.74787   5.76513   5.88058   6.18624
 Alpha virt. eigenvalues --    6.41264   6.46281   6.56609   6.58607   6.91211
 Alpha virt. eigenvalues --    7.08157   7.15666  10.86289  10.89463  10.92415
 Alpha virt. eigenvalues --   10.96730  11.44421  11.48760  22.21584  22.48075
 Alpha virt. eigenvalues --   22.52035  22.69778  22.73890  22.81361  22.91371
 Alpha virt. eigenvalues --   22.94474  23.11368  23.35278  25.69082  25.93942
 Alpha virt. eigenvalues --   32.20575  44.00541
          Condensed to atoms (all electrons):
               1          2          3          4          5          6
     1  C    6.873312  -0.431359  -0.189570   0.110969   0.010917   0.002491
     2  C   -0.431359   5.022880   0.687113   0.141657  -0.004472   0.002498
     3  O   -0.189570   0.687113   8.053159   0.010695  -0.001189   0.002175
     4  C    0.110969   0.141657   0.010695   5.404886  -0.009589  -0.008176
     5  C    0.010917  -0.004472  -0.001189  -0.009589   4.887210   0.412915
     6  H    0.002491   0.002498   0.002175  -0.008176   0.412915   0.501024
     7  H   -0.006211   0.000304   0.000072  -0.007967   0.417189  -0.022538
     8  H    0.000105  -0.000017  -0.000005   0.003189   0.401977  -0.018557
     9  N   -0.067955  -0.010533   0.000385  -0.064013   0.215625  -0.040147
    10  H   -0.013869  -0.000006   0.000017   0.004394  -0.014332  -0.000080
    11  H    0.009917   0.000073   0.000001   0.002423  -0.020417   0.004243
    12  Cl  -0.051872  -0.003152  -0.000169   0.333653   0.004592   0.000763
    13  C   -0.047034  -0.052033  -0.001910   0.115421   0.008173  -0.006457
    14  C    0.052076  -0.019920  -0.000054  -0.136920  -0.000837  -0.000400
    15  C   -0.006441   0.001674  -0.000009   0.012404   0.000108   0.000055
    16  C    0.001721  -0.000090  -0.000014  -0.004575  -0.000007  -0.000019
    17  C   -0.002620   0.000047   0.000050  -0.000163  -0.000531   0.000036
    18  C   -0.009986   0.008440  -0.000149  -0.138270  -0.016896   0.000122
    19  H   -0.002884   0.001796  -0.000032  -0.002550  -0.000042  -0.000029
    20  H   -0.000071   0.000005  -0.000000  -0.000270  -0.000001  -0.000000
    21  H    0.000022  -0.000008   0.000000   0.000029  -0.000000  -0.000000
    22  H   -0.000038  -0.000007   0.000000  -0.000462  -0.000069   0.000004
    23  H   -0.000148   0.000529  -0.000023  -0.020649   0.003583  -0.001590
    24  Cl   0.225209  -0.016696  -0.000212  -0.041244  -0.001723   0.004275
    25  H   -0.306057   0.595168  -0.066294   0.039514  -0.000299   0.001080
               7          8          9         10         11         12
     1  C   -0.006211   0.000105  -0.067955  -0.013869   0.009917  -0.051872
     2  C    0.000304  -0.000017  -0.010533  -0.000006   0.000073  -0.003152
     3  O    0.000072  -0.000005   0.000385   0.000017   0.000001  -0.000169
     4  C   -0.007967   0.003189  -0.064013   0.004394   0.002423   0.333653
     5  C    0.417189   0.401977   0.215625  -0.014332  -0.020417   0.004592
     6  H   -0.022538  -0.018557  -0.040147  -0.000080   0.004243   0.000763
     7  H    0.490773  -0.013690  -0.024751   0.003833  -0.008540  -0.000141
     8  H   -0.013690   0.482308  -0.017313  -0.008599  -0.000355  -0.000289
     9  N   -0.024751  -0.017313   6.573124   0.346919   0.352477  -0.071679
    10  H    0.003833  -0.008599   0.346919   0.388007  -0.016500   0.003936
    11  H   -0.008540  -0.000355   0.352477  -0.016500   0.379131   0.004203
    12  Cl  -0.000141  -0.000289  -0.071679   0.003936   0.004203  16.962121
    13  C    0.003557  -0.000325   0.067397   0.004451  -0.012526  -0.076716
    14  C   -0.000197   0.000055   0.013524  -0.000632  -0.000115   0.008990
    15  C    0.000040  -0.000003  -0.000938   0.000036  -0.000040  -0.001417
    16  C   -0.000044   0.000001   0.000124  -0.000010   0.000051   0.000591
    17  C    0.001239  -0.000001   0.002582   0.000062  -0.000895  -0.001339
    18  C   -0.006437   0.000633   0.018166   0.000516  -0.000674   0.002674
    19  H    0.000003   0.000001   0.000753  -0.000020  -0.000051   0.010054
    20  H    0.000000  -0.000000   0.000004   0.000000  -0.000001  -0.000049
    21  H   -0.000000  -0.000000   0.000001  -0.000000   0.000000  -0.000001
    22  H    0.000044   0.000000   0.000081  -0.000000  -0.000022   0.000002
    23  H    0.008797  -0.000268   0.005164   0.000594  -0.003534  -0.000045
    24  Cl   0.000546  -0.000496   0.008773   0.004705   0.000032  -0.014417
    25  H    0.000050  -0.000046  -0.001884  -0.000041   0.000104  -0.000507
              13         14         15         16         17         18
     1  C   -0.047034   0.052076  -0.006441   0.001721  -0.002620  -0.009986
     2  C   -0.052033  -0.019920   0.001674  -0.000090   0.000047   0.008440
     3  O   -0.001910  -0.000054  -0.000009  -0.000014   0.000050  -0.000149
     4  C    0.115421  -0.136920   0.012404  -0.004575  -0.000163  -0.138270
     5  C    0.008173  -0.000837   0.000108  -0.000007  -0.000531  -0.016896
     6  H   -0.006457  -0.000400   0.000055  -0.000019   0.000036   0.000122
     7  H    0.003557  -0.000197   0.000040  -0.000044   0.001239  -0.006437
     8  H   -0.000325   0.000055  -0.000003   0.000001  -0.000001   0.000633
     9  N    0.067397   0.013524  -0.000938   0.000124   0.002582   0.018166
    10  H    0.004451  -0.000632   0.000036  -0.000010   0.000062   0.000516
    11  H   -0.012526  -0.000115  -0.000040   0.000051  -0.000895  -0.000674
    12  Cl  -0.076716   0.008990  -0.001417   0.000591  -0.001339   0.002674
    13  C    5.576738   0.336526   0.033770  -0.104882   0.000834   0.220800
    14  C    0.336526   5.226947   0.387816   0.045741  -0.065477   0.051209
    15  C    0.033770   0.387816   4.999853   0.386316   0.023640  -0.099537
    16  C   -0.104882   0.045741   0.386316   4.997052   0.415271   0.048825
    17  C    0.000834  -0.065477   0.023640   0.415271   4.961444   0.425085
    18  C    0.220800   0.051209  -0.099537   0.048825   0.425085   5.225685
    19  H   -0.079590   0.460382  -0.045667   0.011302  -0.004473   0.015378
    20  H    0.015193  -0.061077   0.457788  -0.058955   0.011636  -0.004316
    21  H   -0.003953   0.011980  -0.058456   0.455153  -0.058139   0.013049
    22  H    0.014440  -0.003511   0.010880  -0.055801   0.451587  -0.054990
    23  H   -0.089588   0.003863  -0.001166   0.006696   0.000374   0.440428
    24  Cl   0.012532   0.000326  -0.000064   0.000009   0.000014  -0.000580
    25  H   -0.015888  -0.009426   0.001910   0.001058  -0.000304   0.000853
              19         20         21         22         23         24
     1  C   -0.002884  -0.000071   0.000022  -0.000038  -0.000148   0.225209
     2  C    0.001796   0.000005  -0.000008  -0.000007   0.000529  -0.016696
     3  O   -0.000032  -0.000000   0.000000   0.000000  -0.000023  -0.000212
     4  C   -0.002550  -0.000270   0.000029  -0.000462  -0.020649  -0.041244
     5  C   -0.000042  -0.000001  -0.000000  -0.000069   0.003583  -0.001723
     6  H   -0.000029  -0.000000  -0.000000   0.000004  -0.001590   0.004275
     7  H    0.000003   0.000000  -0.000000   0.000044   0.008797   0.000546
     8  H    0.000001  -0.000000  -0.000000   0.000000  -0.000268  -0.000496
     9  N    0.000753   0.000004   0.000001   0.000081   0.005164   0.008773
    10  H   -0.000020   0.000000  -0.000000  -0.000000   0.000594   0.004705
    11  H   -0.000051  -0.000001   0.000000  -0.000022  -0.003534   0.000032
    12  Cl   0.010054  -0.000049  -0.000001   0.000002  -0.000045  -0.014417
    13  C   -0.079590   0.015193  -0.003953   0.014440  -0.089588   0.012532
    14  C    0.460382  -0.061077   0.011980  -0.003511   0.003863   0.000326
    15  C   -0.045667   0.457788  -0.058456   0.010880  -0.001166  -0.000064
    16  C    0.011302  -0.058955   0.455153  -0.055801   0.006696   0.000009
    17  C   -0.004473   0.011636  -0.058139   0.451587   0.000374   0.000014
    18  C    0.015378  -0.004316   0.013049  -0.054990   0.440428  -0.000580
    19  H    0.484245  -0.006778  -0.000031   0.000008   0.000104   0.000155
    20  H   -0.006778   0.502977  -0.006760  -0.000042   0.000046  -0.000002
    21  H   -0.000031  -0.006760   0.503699  -0.006519  -0.000122   0.000000
    22  H    0.000008  -0.000042  -0.006519   0.502879  -0.007058  -0.000000
    23  H    0.000104   0.000046  -0.000122  -0.007058   0.533010  -0.000030
    24  Cl   0.000155  -0.000002   0.000000  -0.000000  -0.000030  16.965508
    25  H    0.000094  -0.000058  -0.000011  -0.000038  -0.000237   0.006426
              25
     1  C   -0.306057
     2  C    0.595168
     3  O   -0.066294
     4  C    0.039514
     5  C   -0.000299
     6  H    0.001080
     7  H    0.000050
     8  H   -0.000046
     9  N   -0.001884
    10  H   -0.000041
    11  H    0.000104
    12  Cl  -0.000507
    13  C   -0.015888
    14  C   -0.009426
    15  C    0.001910
    16  C    0.001058
    17  C   -0.000304
    18  C    0.000853
    19  H    0.000094
    20  H   -0.000058
    21  H   -0.000011
    22  H   -0.000038
    23  H   -0.000237
    24  Cl   0.006426
    25  H    0.651725
 Mulliken charges:
               1
     1  C   -0.150620
     2  C    0.076109
     3  O   -0.494038
     4  C    0.255613
     5  C   -0.291886
     6  H    0.166310
     7  H    0.164068
     8  H    0.171697
     9  N   -0.305884
    10  H    0.296620
    11  H    0.311015
    12  Cl  -0.109787
    13  C    0.081070
    14  C   -0.300867
    15  C   -0.102551
    16  C   -0.145514
    17  C   -0.159959
    18  C   -0.140029
    19  H    0.157872
    20  H    0.150729
    21  H    0.150069
    22  H    0.148634
    23  H    0.121268
    24  Cl  -0.153044
    25  H    0.103106
 Sum of Mulliken charges =  -0.00000
 Mulliken charges with hydrogens summed into heavy atoms:
               1
     1  C   -0.150620
     2  C    0.179214
     3  O   -0.494038
     4  C    0.255613
     5  C    0.210189
     9  N    0.301751
    12  Cl  -0.109787
    13  C    0.081070
    14  C   -0.142995
    15  C    0.048177
    16  C    0.004555
    17  C   -0.011326
    18  C   -0.018760
    24  Cl  -0.153044
 APT charges:
               1
     1  C    0.046540
     2  C   -0.879815
     3  O    0.110436
     4  C   -0.243121
     5  C   -1.121355
     6  H    0.151312
     7  H    0.389538
     8  H    0.729544
     9  N   -0.779727
    10  H    0.631185
    11  H    0.594823
    12  Cl   0.137849
    13  C   -0.228742
    14  C   -0.621728
    15  C   -0.574869
    16  C   -0.595772
    17  C   -0.644959
    18  C   -0.546148
    19  H    0.334454
    20  H    0.751080
    21  H    0.970386
    22  H    0.760572
    23  H    0.327987
    24  Cl   0.100764
    25  H    0.199765
 Sum of APT charges =  -0.00000
 APT charges with hydrogens summed into heavy atoms:
               1
     1  C    0.046540
     2  C   -0.680050
     3  O    0.110436
     4  C   -0.243121
     5  C    0.149039
     9  N    0.446281
    12  Cl   0.137849
    13  C   -0.228742
    14  C   -0.287273
    15  C    0.176211
    16  C    0.374614
    17  C    0.115613
    18  C   -0.218161
    24  Cl   0.100764
 Electronic spatial extent (au):  <R**2>=           3344.7036
 Charge=             -0.0000 electrons
 Dipole moment (field-independent basis, Debye):
    X=             -6.0076    Y=             -9.8282    Z=              3.8518  Tot=             12.1458
 Quadrupole moment (field-independent basis, Debye-Ang):
   XX=            -96.0795   YY=           -105.3569   ZZ=            -87.4607
   XY=            -18.8922   XZ=              1.4924   YZ=            -14.9233
 Traceless Quadrupole moment (field-independent basis, Debye-Ang):
   XX=              0.2195   YY=             -9.0579   ZZ=              8.8383
   XY=            -18.8922   XZ=              1.4924   YZ=            -14.9233
 Octapole moment (field-independent basis, Debye-Ang**2):
  XXX=            -49.3733  YYY=            -94.4039  ZZZ=             17.4552  XYY=            -15.9862
  XXY=            -23.0324  XXZ=              8.4848  XZZ=             -0.1808  YZZ=            -16.1075
  YYZ=             -1.7413  XYZ=             -4.1674
 Hexadecapole moment (field-independent basis, Debye-Ang**3):
 XXXX=          -2378.3774 YYYY=          -1105.8515 ZZZZ=           -789.3105 XXXY=           -120.0396
 XXXZ=            -18.4984 YYYX=           -124.9053 YYYZ=            -72.5585 ZZZX=             11.1685
 ZZZY=            -38.5912 XXYY=           -645.8410 XXZZ=           -535.4208 YYZZ=           -291.2221
 XXYZ=            -52.6439 YYXZ=             -8.8278 ZZXY=            -22.5920
 N-N= 1.124898395023D+03 E-N=-5.643817032593D+03  KE= 1.434253299451D+03
  Exact polarizability:   0.000   0.000   0.000   0.000   0.000   0.000
 Approx polarizability: 191.187  -2.457 178.277  -6.952  -6.320 173.507
   1 Symmetry operations used in ECPInt.
 ECPInt:  NShTT=   20503 NPrTT=   65349 LenC2=   19219 LenP2D=   44955.
 LDataN:  DoStor=T MaxTD1= 8 Len=  415
 D2PCM: PCM CHGder 2nd derivatives, FixD1E=F FixD2E=F DoIter=F DoCFld=F I1PDM=0
 Calling FoFJK, ICntrl=    100147 FMM=F ISym2X=0 I1Cent= 0 IOpClX= 0 NMat=1 NMatS=1 NMatT=0.
 ***** Axes restored to original set *****
 -------------------------------------------------------------------
 Center     Atomic                   Forces (Hartrees/Bohr)
 Number     Number              X              Y              Z
 -------------------------------------------------------------------
      1        6           0.000002429    0.000004377    0.000004107
      2        6          -0.000000069    0.000007232    0.000005223
      3        8          -0.000010924    0.000002355    0.000002721
      4        6           0.002462556   -0.007089775    0.006793551
      5        6           0.000001434    0.000007300    0.000002260
      6        1          -0.000003672    0.000005231    0.000004257
      7        1           0.000001260    0.000001078    0.000001305
      8        1          -0.000000016    0.000005213    0.000004121
      9        7          -0.002457395    0.007092846   -0.006791435
     10        1           0.000002137    0.000004876    0.000005458
     11        1           0.000003192   -0.000000912    0.000001003
     12       17           0.000007352    0.000004156    0.000001981
     13        6           0.000001620    0.000001576   -0.000009331
     14        6          -0.000004644   -0.000005153    0.000007119
     15        6           0.000005240   -0.000003644   -0.000013448
     16        6          -0.000008857   -0.000006113    0.000000392
     17        6           0.000001204   -0.000009982   -0.000005331
     18        6          -0.000000440   -0.000004253    0.000007070
     19        1           0.000005400    0.000000371   -0.000006015
     20        1           0.000001962   -0.000008589   -0.000002401
     21        1           0.000003245   -0.000011860   -0.000008391
     22        1           0.000000038   -0.000007072   -0.000006972
     23        1          -0.000006468    0.000000461   -0.000004622
     24       17           0.000000160    0.000008240    0.000006905
     25        1          -0.000006744    0.000002042    0.000000470
 -------------------------------------------------------------------
 Cartesian Forces:  Max     0.007092846 RMS     0.001653095
 FormGI is forming the generalized inverse of G from B-inverse, IUseBI=4.

 GradGradGradGradGradGradGradGradGradGradGradGradGradGradGradGradGradGrad
 Berny optimization.
 Internal  Forces:  Max     0.010121384 RMS     0.000905287
 Search for a saddle point.
 Step number   1 out of a maximum of   70
 All quantities printed in internal units (Hartrees-Bohrs-Radians)
 Swapping is turned off.
 Second derivative matrix not updated -- analytic derivatives used.
 ITU=  0
     Eigenvalues ---   -0.02909  -0.00264   0.00071   0.00479   0.00917
     Eigenvalues ---    0.01464   0.01750   0.01829   0.01890   0.02013
     Eigenvalues ---    0.02203   0.02370   0.02559   0.02652   0.02729
     Eigenvalues ---    0.02898   0.02949   0.03702   0.04559   0.04823
     Eigenvalues ---    0.05276   0.06075   0.07888   0.08873   0.09835
     Eigenvalues ---    0.10023   0.10974   0.11630   0.11999   0.12380
     Eigenvalues ---    0.12806   0.13237   0.14391   0.15220   0.16105
     Eigenvalues ---    0.17388   0.18044   0.18676   0.19178   0.19326
     Eigenvalues ---    0.19550   0.19738   0.20414   0.22878   0.25557
     Eigenvalues ---    0.25920   0.29789   0.31003   0.33257   0.33995
     Eigenvalues ---    0.34564   0.34903   0.35556   0.36357   0.36393
     Eigenvalues ---    0.36482   0.36577   0.36640   0.39452   0.39526
     Eigenvalues ---    0.42504   0.44274   0.45189   0.45276   0.48038
     Eigenvalues ---    0.48391   0.48648   0.52298   0.75625
 Eigenvectors required to have negative eigenvalues:
                          R6        D9        D6        D21       D20
   1                   -0.86281  -0.20952  -0.19332  -0.14737  -0.14507
                          R7        R2        D8        A7        D5
   1                    0.13663   0.11258  -0.09837   0.08598  -0.08217
 RFO step:  Lambda0=2.420927507D-03 Lambda=-2.74603579D-03.
 Linear search not attempted -- option 19 set.
 Maximum step size (   0.030) exceeded in Quadratic search.
    -- Step size scaled by   0.139
 Iteration  1 RMS(Cart)=  0.00767222 RMS(Int)=  0.00001715
 Iteration  2 RMS(Cart)=  0.00003252 RMS(Int)=  0.00000325
 Iteration  3 RMS(Cart)=  0.00000000 RMS(Int)=  0.00000325
 Variable       Old X    -DE/DX   Delta X   Delta X   Delta X     New X
                                 (Linear)    (Quad)   (Total)
    R1        2.67184   0.00000   0.00000   0.00255   0.00255   2.67439
    R2        2.65621   0.00000   0.00000  -0.00378  -0.00378   2.65243
    R3        3.30449  -0.00000   0.00000  -0.00101  -0.00101   3.30348
    R4        2.32540  -0.00000   0.00000  -0.00124  -0.00124   2.32416
    R5        2.08387   0.00000   0.00000  -0.00006  -0.00006   2.08382
    R6        3.54282  -0.01012   0.00000   0.02694   0.02694   3.56976
    R7        3.42024  -0.00000   0.00000  -0.00645  -0.00645   3.41379
    R8        2.84542   0.00000   0.00000  -0.00053  -0.00053   2.84489
    R9        2.06186  -0.00000   0.00000   0.00054   0.00054   2.06240
   R10        2.05140  -0.00000   0.00000   0.00021   0.00021   2.05161
   R11        2.05558   0.00000   0.00000   0.00026   0.00026   2.05584
   R12        2.76525   0.00000   0.00000  -0.00163  -0.00163   2.76362
   R13        1.91652  -0.00000   0.00000  -0.00038  -0.00038   1.91614
   R14        1.91750   0.00000   0.00000  -0.00033  -0.00033   1.91717
   R15        2.63722  -0.00000   0.00000  -0.00001  -0.00001   2.63721
   R16        2.62152   0.00001   0.00000  -0.00001  -0.00001   2.62151
   R17        2.61185  -0.00000   0.00000   0.00013   0.00013   2.61197
   R18        2.04505   0.00001   0.00000   0.00004   0.00004   2.04510
   R19        2.62496   0.00000   0.00000  -0.00005  -0.00005   2.62491
   R20        2.04506  -0.00000   0.00000   0.00001   0.00001   2.04507
   R21        2.61421   0.00000   0.00000   0.00010   0.00010   2.61431
   R22        2.04512  -0.00000   0.00000   0.00001   0.00001   2.04512
   R23        2.62479  -0.00000   0.00000  -0.00009  -0.00009   2.62470
   R24        2.04481  -0.00000   0.00000   0.00001   0.00001   2.04483
   R25        2.03821  -0.00001   0.00000  -0.00013  -0.00013   2.03808
    A1        2.16262   0.00000   0.00000  -0.00176  -0.00176   2.16086
    A2        2.04813  -0.00000   0.00000  -0.00055  -0.00055   2.04758
    A3        2.06728  -0.00000   0.00000   0.00241   0.00241   2.06969
    A4        2.20937   0.00000   0.00000  -0.00074  -0.00074   2.20863
    A5        1.98572   0.00000   0.00000   0.00014   0.00014   1.98586
    A6        2.08804  -0.00000   0.00000   0.00059   0.00059   2.08863
    A7        1.88409  -0.00001   0.00000  -0.00315  -0.00315   1.88094
    A8        2.02586   0.00000   0.00000   0.00258   0.00257   2.02843
    A9        2.05647   0.00000   0.00000   0.00219   0.00217   2.05864
   A10        1.65901  -0.00000   0.00000  -0.00300  -0.00299   1.65602
   A11        1.87687   0.00001   0.00000  -0.00361  -0.00360   1.87326
   A12        1.91285  -0.00000   0.00000   0.00282   0.00280   1.91565
   A13        1.90447  -0.00000   0.00000  -0.00074  -0.00074   1.90373
   A14        1.90694   0.00000   0.00000  -0.00121  -0.00121   1.90572
   A15        1.88949   0.00000   0.00000   0.00036   0.00036   1.88986
   A16        1.90744  -0.00000   0.00000  -0.00086  -0.00086   1.90658
   A17        1.93108   0.00000   0.00000   0.00022   0.00022   1.93130
   A18        1.92411  -0.00000   0.00000   0.00219   0.00219   1.92630
   A19        2.00519  -0.00000   0.00000  -0.00113  -0.00114   2.00406
   A20        1.75675   0.00000   0.00000  -0.00367  -0.00367   1.75308
   A21        1.90283   0.00000   0.00000   0.00292   0.00292   1.90576
   A22        1.93124  -0.00000   0.00000   0.00052   0.00052   1.93176
   A23        1.97916   0.00000   0.00000   0.00051   0.00051   1.97967
   A24        1.87190  -0.00000   0.00000   0.00051   0.00051   1.87241
   A25        2.04424  -0.00000   0.00000   0.00001   0.00001   2.04425
   A26        2.16404   0.00001   0.00000  -0.00007  -0.00007   2.16396
   A27        2.07469  -0.00000   0.00000   0.00005   0.00005   2.07474
   A28        2.10546   0.00000   0.00000  -0.00005  -0.00005   2.10541
   A29        2.08600  -0.00000   0.00000   0.00012   0.00012   2.08612
   A30        2.09170  -0.00000   0.00000  -0.00007  -0.00007   2.09163
   A31        2.09729  -0.00000   0.00000  -0.00001  -0.00001   2.09728
   A32        2.08714   0.00000   0.00000   0.00001   0.00001   2.08715
   A33        2.09876   0.00000   0.00000   0.00000   0.00000   2.09876
   A34        2.08596  -0.00000   0.00000   0.00001   0.00001   2.08598
   A35        2.09847   0.00000   0.00000  -0.00001  -0.00001   2.09845
   A36        2.09876   0.00000   0.00000  -0.00000  -0.00000   2.09876
   A37        2.10066   0.00000   0.00000  -0.00001  -0.00001   2.10065
   A38        2.10012  -0.00000   0.00000  -0.00004  -0.00004   2.10008
   A39        2.08241  -0.00000   0.00000   0.00005   0.00005   2.08246
   A40        2.10230  -0.00000   0.00000   0.00001   0.00001   2.10231
   A41        2.12044   0.00000   0.00000  -0.00084  -0.00084   2.11960
   A42        2.06035  -0.00000   0.00000   0.00082   0.00082   2.06117
    D1        3.07767   0.00000   0.00000   0.00126   0.00126   3.07893
    D2       -0.07570  -0.00000   0.00000   0.00036   0.00036  -0.07534
    D3        0.04690   0.00000   0.00000   0.00002   0.00002   0.04692
    D4       -3.10648  -0.00000   0.00000  -0.00087  -0.00087  -3.10735
    D5       -1.87861  -0.00000   0.00000   0.00813   0.00813  -1.87049
    D6        2.56907  -0.00000   0.00000   0.01241   0.01241   2.58148
    D7        0.24978   0.00000   0.00000   0.00227   0.00227   0.25204
    D8        1.15103  -0.00000   0.00000   0.00919   0.00919   1.16022
    D9       -0.68448  -0.00000   0.00000   0.01348   0.01348  -0.67100
   D10       -3.00376   0.00000   0.00000   0.00334   0.00333  -3.00043
   D11        0.71735  -0.00000   0.00000  -0.00468  -0.00468   0.71267
   D12       -1.35742   0.00000   0.00000  -0.00245  -0.00245  -1.35987
   D13        2.96076   0.00000   0.00000  -0.00237  -0.00237   2.95840
   D14        2.80307  -0.00000   0.00000  -0.00403  -0.00403   2.79904
   D15        0.72830  -0.00000   0.00000  -0.00180  -0.00180   0.72650
   D16       -1.23670  -0.00000   0.00000  -0.00172  -0.00172  -1.23842
   D17       -1.51834  -0.00000   0.00000  -0.00295  -0.00295  -1.52129
   D18        2.69008  -0.00000   0.00000  -0.00072  -0.00072   2.68935
   D19        0.72507  -0.00000   0.00000  -0.00064  -0.00064   0.72443
   D20        1.29775   0.00000   0.00000   0.01144   0.01145   1.30920
   D21       -1.82099   0.00000   0.00000   0.01235   0.01235  -1.80864
   D22       -2.85335  -0.00000   0.00000   0.00583   0.00583  -2.84752
   D23        0.31109  -0.00000   0.00000   0.00673   0.00673   0.31782
   D24       -1.07037   0.00000   0.00000   0.00199   0.00199  -1.06838
   D25        2.09407   0.00000   0.00000   0.00290   0.00289   2.09696
   D26       -0.46137   0.00000   0.00000   0.00574   0.00574  -0.45563
   D27        1.51298   0.00000   0.00000   0.00077   0.00077   1.51375
   D28       -2.66606  -0.00000   0.00000   0.00216   0.00216  -2.66390
   D29        1.62478   0.00000   0.00000   0.00519   0.00519   1.62997
   D30       -2.68406   0.00000   0.00000   0.00022   0.00022  -2.68384
   D31       -0.57991   0.00000   0.00000   0.00161   0.00161  -0.57830
   D32       -2.54641   0.00000   0.00000   0.00570   0.00570  -2.54071
   D33       -0.57207  -0.00000   0.00000   0.00074   0.00074  -0.57133
   D34        1.53208  -0.00000   0.00000   0.00213   0.00213   1.53420
   D35       -3.11263  -0.00000   0.00000  -0.00010  -0.00010  -3.11273
   D36        0.02123  -0.00000   0.00000   0.00006   0.00006   0.02129
   D37        0.00733  -0.00000   0.00000  -0.00096  -0.00096   0.00637
   D38        3.14119   0.00000   0.00000  -0.00080  -0.00080   3.14039
   D39        3.11363   0.00000   0.00000  -0.00006  -0.00006   3.11356
   D40       -0.01224   0.00000   0.00000   0.00066   0.00066  -0.01158
   D41       -0.00474   0.00000   0.00000   0.00086   0.00086  -0.00389
   D42       -3.13061  -0.00000   0.00000   0.00158   0.00158  -3.12903
   D43       -0.00552   0.00000   0.00000   0.00032   0.00032  -0.00521
   D44        3.13560   0.00000   0.00000   0.00020   0.00020   3.13580
   D45       -3.13936  -0.00000   0.00000   0.00016   0.00016  -3.13920
   D46        0.00176  -0.00000   0.00000   0.00004   0.00004   0.00181
   D47        0.00103  -0.00000   0.00000   0.00044   0.00044   0.00147
   D48       -3.14055   0.00000   0.00000   0.00012   0.00012  -3.14042
   D49       -3.14008  -0.00000   0.00000   0.00055   0.00055  -3.13953
   D50        0.00152   0.00000   0.00000   0.00023   0.00023   0.00176
   D51        0.00154   0.00000   0.00000  -0.00054  -0.00054   0.00100
   D52        3.13985   0.00000   0.00000  -0.00051  -0.00051   3.13934
   D53       -3.14007  -0.00000   0.00000  -0.00022  -0.00022  -3.14029
   D54       -0.00176  -0.00000   0.00000  -0.00020  -0.00020  -0.00195
   D55        0.00036  -0.00000   0.00000  -0.00012  -0.00012   0.00025
   D56        3.12676   0.00000   0.00000  -0.00083  -0.00083   3.12593
   D57       -3.13798  -0.00000   0.00000  -0.00014  -0.00014  -3.13812
   D58       -0.01158   0.00000   0.00000  -0.00085  -0.00085  -0.01244
         Item               Value     Threshold  Converged?
 Maximum Force            0.010121     0.000450     NO 
 RMS     Force            0.000905     0.000300     NO 
 Maximum Displacement     0.028339     0.001800     NO 
 RMS     Displacement     0.007674     0.001200     NO 
 Predicted change in Energy= 2.545202D-04
 GradGradGradGradGradGradGradGradGradGradGradGradGradGradGradGradGradGrad

                          Input orientation:                          
 ---------------------------------------------------------------------
 Center     Atomic      Atomic             Coordinates (Angstroms)
 Number     Number       Type             X           Y           Z
 ---------------------------------------------------------------------
      1          6           0        1.222045    0.660617   -0.090482
      2          6           0        0.858371    1.901244    0.485238
      3          8           0        1.605989    2.851710    0.709564
      4          6           0        0.334389   -0.414143   -0.255001
      5          6           0        1.140503   -1.225389    2.337087
      6          1           0        1.514695   -0.206653    2.221923
      7          1           0        0.269485   -1.212322    2.985030
      8          1           0        1.914550   -1.841667    2.789400
      9          7           0        0.790730   -1.738053    1.012860
     10          1           0        1.600281   -2.151515    0.563604
     11          1           0        0.063450   -2.445096    1.033233
     12         17           0        0.619387   -1.472027   -1.691350
     13          6           0       -1.138845   -0.141410   -0.108097
     14          6           0       -1.771017    0.522799   -1.160117
     15          6           0       -3.114262    0.840252   -1.086727
     16          6           0       -3.852860    0.494116    0.037596
     17          6           0       -3.233740   -0.168339    1.082454
     18          6           0       -1.883319   -0.485154    1.010853
     19          1           0       -1.200043    0.796952   -2.037627
     20          1           0       -3.586133    1.360321   -1.910152
     21          1           0       -4.904908    0.741179    0.095752
     22          1           0       -3.796133   -0.442350    1.965360
     23          1           0       -1.434436   -0.988754    1.852322
     24         17           0        2.911590    0.415016   -0.466068
     25          1           0       -0.213970    1.980735    0.729637
 ---------------------------------------------------------------------
                    Distance matrix (angstroms):
                    1          2          3          4          5
     1  C    0.000000
     2  C    1.415227   0.000000
     3  O    2.363975   1.229895   0.000000
     4  C    1.403606   2.486670   3.634990   0.000000
     5  C    3.075184   3.644829   4.414549   2.833171   0.000000
     6  H    2.486970   2.808926   3.413085   2.751605   1.091377
     7  H    3.724788   4.036093   4.845652   3.337530   1.085667
     8  H    3.877462   4.520405   5.142832   3.715255   1.087905
     9  N    2.675259   3.677967   4.671462   1.889036   1.462444
    10  H    2.911869   4.120853   5.005357   2.300231   2.052887
    11  H    3.500076   4.452288   5.526332   2.420274   2.085129
    12  Cl   2.733888   4.021642   5.043062   1.806499   4.069483
    13  C    2.493464   2.917766   4.142639   1.505451   3.514166
    14  C    3.181436   3.394258   4.508182   2.475849   4.874786
    15  C    4.452902   4.402112   5.436304   3.762774   5.838869
    16  C    5.079251   4.937215   5.984048   4.294601   5.760036
    17  C    4.681557   4.624415   5.716880   3.818475   4.671772
    18  C    3.488412   3.672605   4.837428   2.554536   3.383835
    19  H    3.110703   3.438223   4.432032   2.645560   5.357811
    20  H    5.188388   5.077806   6.003773   4.610720   6.860468
    21  H    6.130313   5.891761   6.871892   5.376619   6.740769
    22  H    5.533999   5.417343   6.450642   4.689564   5.012156
    23  H    3.681278   3.934206   5.029836   2.810646   2.630837
    24  Cl   1.748126   2.707317   3.004028   2.715515   3.699372
    25  H    2.115998   1.102709   2.017735   2.646818   3.833760
                    6          7          8          9         10
     6  H    0.000000
     7  H    1.773203   0.000000
     8  H    1.776284   1.772169   0.000000
     9  N    2.081140   2.106548   2.104710   0.000000
    10  H    2.557310   2.918288   2.269128   1.013980   0.000000
    11  H    2.920568   2.317691   2.621988   1.014525   1.633582
    12  Cl   4.209092   4.696638   4.678804   2.722660   2.551211
    13  C    3.531929   3.563381   4.539779   2.743915   3.463310
    14  C    4.771394   4.935235   5.896846   4.049176   4.635604
    15  C    5.785362   5.678205   6.892460   5.128828   5.822472
    16  C    5.837208   5.347245   6.803773   5.243724   6.083814
    17  C    4.883389   4.120957   5.676142   4.320324   5.250710
    18  C    3.618114   3.010102   4.407626   2.953014   3.887449
    19  H    5.149834   5.605692   6.321645   4.437893   4.827181
    20  H    6.748918   6.741446   7.911766   6.107442   6.734342
    21  H    6.828637   6.240068   7.773793   6.279169   7.134708
    22  H    5.322243   4.261671   5.937090   4.860598   5.831591
    23  H    3.073379   2.058241   3.580682   2.493493   3.496043
    24  Cl   3.092424   4.641015   4.084701   3.364666   3.060529
    25  H    3.162257   3.939053   4.835699   3.862514   4.516034
                   11         12         13         14         15
    11  H    0.000000
    12  Cl   2.946062   0.000000
    13  C    2.838153   2.714519   0.000000
    14  C    4.121220   3.158412   1.395551   0.000000
    15  C    5.038412   4.433096   2.413224   1.382198   0.000000
    16  C    4.996773   5.182274   2.791235   2.401960   1.389042
    17  C    4.007182   4.923432   2.409714   2.765205   2.395178
    18  C    2.762568   3.813050   1.387245   2.396183   2.769794
    19  H    4.640848   2.928907   2.146476   1.082218   2.137832
    20  H    6.038557   5.075083   3.389958   2.135098   1.082203
    21  H    5.976270   6.213682   3.873467   3.383219   2.148135
    22  H    4.447048   5.824824   3.383928   3.847235   3.380125
    23  H    2.243992   4.124240   2.156063   3.387163   3.847738
    24  Cl   4.305815   3.211922   4.104118   4.734990   6.072638
    25  H    4.444897   4.298514   2.461847   2.849761   3.607155
                   16         17         18         19         20
    16  C    0.000000
    17  C    1.383432   0.000000
    18  C    2.405263   1.388934   0.000000
    19  H    3.381672   3.847418   3.376965   0.000000
    20  H    2.148296   3.378857   3.851963   2.455008   0.000000
    21  H    1.082233   2.143270   3.386932   4.275564   2.479144
    22  H    2.143935   1.082077   2.138171   4.929449   4.279406
    23  H    3.367626   2.122092   1.078508   4.286653   4.929925
    24  Cl   6.783636   6.364221   5.097328   4.418280   6.723049
    25  H    3.991300   3.723171   2.991056   3.167243   4.327226
                   21         22         23         24         25
    21  H    0.000000
    22  H    2.474986   0.000000
    23  H    4.257039   2.426716   0.000000
    24  Cl   7.843448   7.186131   5.121860   0.000000
    25  H    4.893180   4.497804   3.401150   3.694633   0.000000
 Stoichiometry    C10H11Cl2NO
 Framework group  C1[X(C10H11Cl2NO)]
 Deg. of freedom    69
 Full point group                 C1      NOp   1
 Largest Abelian subgroup         C1      NOp   1
 Largest concise Abelian subgroup C1      NOp   1
                         Standard orientation:                         
 ---------------------------------------------------------------------
 Center     Atomic      Atomic             Coordinates (Angstroms)
 Number     Number       Type             X           Y           Z
 ---------------------------------------------------------------------
      1          6           0        1.221854    0.658581   -0.095706
      2          6           0        0.858451    1.903634    0.470553
      3          8           0        1.606111    2.855925    0.686857
      4          6           0        0.334217   -0.417549   -0.251123
      5          6           0        1.142414   -1.208358    2.346626
      6          1           0        1.516380   -0.190508    2.223199
      7          1           0        0.271888   -1.190328    2.995110
      8          1           0        1.916889   -1.820973    2.803164
      9          7           0        0.791702   -1.731426    1.026723
     10          1           0        1.600968   -2.148291    0.580104
     11          1           0        0.064534   -2.438382    1.053189
     12         17           0        0.618265   -1.486617   -1.679357
     13          6           0       -1.138941   -0.143864   -0.105237
     14          6           0       -1.772003    0.512001   -1.161947
     15          6           0       -3.115235    0.829846   -1.090022
     16          6           0       -3.852930    0.492433    0.037541
     17          6           0       -3.232925   -0.161735    1.087085
     18          6           0       -1.882516   -0.478927    1.016938
     19          1           0       -1.201734    0.779345   -2.042013
[...]
 841,0.00543346,-0.01118171,0.01020256,0.00893682,0.02667802,-0.0724593
 0,0.01689416,-0.08789275,0.15682590,-0.00026553,-0.00033190,0.00014634
 ,-0.00018333,0.00077902,0.00034122,0.00012586,-0.00010205,-0.00010182,
 0.00222907,-0.00045455,-0.00428953,-0.00048571,0.00015900,-0.00047000,
 0.00027755,0.00019916,-0.00001076,-0.00007170,-0.00027358,0.00022404,-
 0.00020334,0.00018432,0.00018414,0.00023333,-0.00023645,-0.00032526,0.
 00004045,-0.00001052,0.00003968,-0.00000835,-0.00001346,-0.00003877,0.
 00084464,-0.00059031,-0.00030083,0.03270175,-0.00558029,0.02777895,-0.
 02878239,0.00544690,-0.01434523,0.01494236,-0.00026847,-0.05899250,-0.
 13215439,0.02922651,-0.27441397,-0.03219626,-0.01533648,0.74609859,0.0
 0050471,0.00085851,0.00054484,0.00018822,-0.00251548,0.00014600,-0.000
 93520,-0.00014567,-0.00014672,-0.01971140,0.00359819,0.02807353,-0.000
 21368,0.00040389,-0.00020966,-0.00015250,0.00000757,0.00006940,-0.0006
 0384,0.00033098,-0.00021572,0.00019903,-0.00005779,-0.00003155,-0.0019
 3891,0.00022352,0.00130833,-0.00009852,0.00012930,-0.00037816,-0.00025
 518,0.00008785,0.00006487,-0.00263712,0.00110102,0.00118454,-0.1564636
 8,0.01416063,0.03745708,0.06838787,-0.01127954,0.01510394,-0.05303251,
 0.00655723,0.03637530,-0.03500967,0.01004211,-0.07786970,-0.33838065,0
 .04309480,0.05625940,0.69878172,-0.00001543,-0.00061815,-0.00129000,-0
 .00018196,-0.00119458,0.00076730,-0.00133817,-0.00056714,-0.00072298,0
 .00561373,0.00057811,-0.00217306,0.00039101,-0.00088471,0.00054399,-0.
 00005215,0.00004501,0.00004540,0.00056099,0.00015350,-0.00026560,0.000
 13293,0.00003761,-0.00028576,0.00126727,0.00063502,-0.00084103,0.00021
 056,0.00005136,0.00013794,-0.00006968,-0.00024593,0.00011020,0.0021300
 7,-0.00072618,-0.00194205,0.00874739,-0.06819471,0.00132733,-0.0082319
 7,0.01216730,0.00000453,0.00682529,-0.00783050,-0.00530982,0.00780076,
 0.00643672,0.01213006,0.04490759,-0.07352121,-0.00771156,-0.08992460,0
 .16107864,-0.00166242,-0.00072354,-0.00196704,-0.00037960,0.00048398,0
 .00066708,-0.00079162,-0.00079895,-0.00040886,0.01187108,-0.00216484,0
 .00227767,0.00096810,0.00006729,0.00046178,-0.00040392,-0.00037018,0.0
 0002766,-0.00032531,0.00050175,-0.00040381,0.00049346,-0.00037608,-0.0
 0030992,-0.00174685,0.00128191,0.00011760,-0.00013013,0.00016465,-0.00
 015308,0.00030407,-0.00001360,0.00038881,-0.00232696,0.00087583,0.0021
 5988,0.10446087,-0.01033486,-0.28832691,-0.03801275,0.00972957,-0.0601
 7043,0.03744862,-0.00582629,-0.02687376,-0.02398228,0.00262818,0.05016
 086,-0.01727050,0.00538193,-0.13530066,0.04035672,-0.02246930,0.719866
 78,-0.00013896,0.00023335,0.00034146,0.00005134,-0.00038006,-0.0001169
 0,0.00010391,0.00023177,0.00008511,0.00041002,-0.00071878,-0.00101895,
 -0.00000852,-0.00009120,0.00000440,0.00000807,0.00000698,-0.00000097,0
 .00001978,-0.00002590,0.00004360,-0.00001201,0.00000182,0.00004722,0.0
 0015175,-0.00002909,0.00030964,-0.00005251,0.00005857,-0.00002582,0.00
 003646,0.00000468,-0.00000560,-0.00449132,0.00216839,-0.00052620,0.010
 97695,-0.00039658,-0.01557665,-0.10591491,0.00658764,0.10713431,-0.007
 92723,0.00084616,0.02919026,-0.00503268,0.00229341,-0.00037583,-0.0008
 7822,0.00000867,-0.00060374,-0.00168354,0.00154049,-0.00326020,0.11331
 659,-0.00025972,0.00004186,-0.00002831,-0.00009747,0.00014035,0.000108
 49,0.00000121,-0.00008699,-0.00004424,-0.00110192,-0.00312830,0.000313
 99,-0.00000326,0.00000391,-0.00003068,-0.00000900,0.00001085,0.0000038
 4,0.00000153,0.00000423,-0.00000325,-0.00000942,0.00000156,0.00000095,
 0.00022083,-0.00003821,-0.00011178,-0.00002908,-0.00004798,0.00010892,
 0.00001119,0.00001159,0.00000091,0.00219755,-0.00100610,-0.00025137,-0
 .00150842,0.00411128,0.00285495,0.00722977,-0.04019412,-0.00832635,0.0
 0199307,0.00448919,-0.00469826,0.00214267,0.00732241,0.00004631,0.0002
 5092,-0.00108297,0.00010595,0.00139826,0.00609575,0.00112905,-0.011200
 85,0.02828050,-0.00014872,0.00009140,0.00016259,0.00008998,-0.00013275
 ,0.00000072,-0.00003064,0.00006389,0.00000021,0.00147338,-0.00095400,-
 0.00120485,-0.00000482,-0.00001345,-0.00001316,0.00002569,0.00001301,-
 0.00000081,-0.00000803,-0.00002883,0.00003409,-0.00001651,0.00001324,0
 .00002316,-0.00009692,0.00004117,0.00009777,-0.00004045,0.00008216,-0.
 00009904,0.00003678,-0.00005089,-0.00000089,0.00190090,-0.00067994,0.0
 0154192,0.01180298,-0.00115747,-0.01812537,0.10603401,-0.00766954,-0.3
 0016245,-0.00141048,0.00038176,0.00249590,-0.00015898,0.00017230,0.001
 67055,-0.00063569,0.00006646,0.00040647,-0.00387082,0.00081708,-0.0024
 2058,-0.11573216,0.00906734,0.31569617,-0.00006610,-0.00011332,-0.0000
 4443,0.00004649,0.00036902,0.00015912,-0.00016802,-0.00024703,-0.00011
 990,0.00013480,0.00002437,-0.00127038,-0.00002767,0.00001748,0.0000128
 2,0.00001352,0.00001289,-0.00000115,0.00000082,0.00000277,-0.00001242,
 0.00000201,0.00001116,-0.00003415,-0.00026387,0.00003863,0.00002654,0.
 00000481,0.00003855,-0.00005526,0.00000338,-0.00006785,0.00002071,0.00
 001967,0.00001785,0.00004029,-0.00469551,0.00210822,0.00151661,-0.0126
 8353,0.00390428,-0.02664862,-0.14714985,0.02345281,-0.12955985,0.01166
 207,-0.00178647,0.01294860,-0.00013631,0.00118736,0.00306925,-0.000692
 12,-0.00009542,0.00089380,0.00097821,-0.00093288,0.00020040,0.15221269
 ,0.00001917,-0.00000021,-0.00000855,0.00007883,-0.00017009,-0.00000405
 ,0.00002006,0.00008789,0.00000529,0.00020938,0.00015012,0.00041717,0.0
 0002512,-0.00000379,0.00002054,-0.00001013,-0.00000536,-0.00000487,-0.
 00000867,0.00000454,-0.00000894,0.00000522,-0.00000409,-0.00000966,-0.
 00017802,0.00019778,-0.00004863,-0.00001136,0.00004308,-0.00002457,-0.
 00001330,-0.00000792,0.00001514,0.00011033,-0.00004632,-0.00004421,0.0
 0192595,0.00708774,-0.00020357,0.00289432,0.00313708,0.00448943,0.0231
 9805,-0.04445439,0.03060420,-0.00051379,0.00423907,-0.00155358,0.00119
 334,0.00736105,-0.00004706,-0.00018934,-0.00106051,-0.00024893,-0.0009
 7237,-0.00424654,-0.00017440,-0.02686062,0.03275451,0.00000336,-0.0000
 4062,-0.00004722,0.00003755,0.00010352,0.00007004,-0.00006382,-0.00007
 692,-0.00004191,0.00041789,-0.00003974,0.00019652,-0.00001430,0.000012
 60,-0.00000772,0.00001036,0.00000500,0.00000181,-0.00000033,-0.0000085
 8,0.00000454,-0.00000457,0.00000659,-0.00000320,-0.00002346,-0.0000369
 4,0.00001340,-0.00000024,0.00000026,-0.00000644,0.00001266,-0.00003258
 ,0.00000749,-0.00008964,0.00003278,0.00003770,0.00134576,0.00002615,0.
 00154416,0.00427941,-0.00087111,0.00624870,-0.12988433,0.03052585,-0.2
 5236732,-0.01808924,0.00391068,-0.01754397,0.00349208,-0.00012559,-0.0
 0370527,0.00092354,-0.00020917,-0.00007238,-0.00035221,-0.00012858,0.0
 0074479,0.13890322,-0.03300106,0.26485070,0.00001191,-0.00008805,-0.00
 003147,0.00007076,0.00018735,0.00009854,-0.00012022,-0.00014330,-0.000
 06978,0.00013996,-0.00013620,-0.00002660,-0.00000852,0.00001619,-0.000
 00978,0.00002757,0.00000743,0.00000542,-0.00000561,-0.00002424,0.00001
 762,-0.00001582,0.00001583,0.00000717,-0.00005748,-0.00003441,0.000029
 33,-0.00000508,0.00000339,-0.00000939,0.00002616,-0.00006279,0.0000011
 6,-0.00010581,0.00004668,0.00001237,0.00058964,-0.00020652,-0.00013994
 ,0.00107621,0.00098173,0.00243470,-0.00796123,0.00209892,-0.00186424,-
 0.33462489,0.04794649,0.02479436,-0.01206468,0.00254368,0.00452098,0.0
 0020917,0.00132611,-0.00317115,-0.00047685,0.00007175,-0.00014568,0.00
 060827,-0.00081233,0.00013695,0.35280401,-0.00007888,0.00003265,0.0000
 5682,-0.00003615,0.00003883,0.00003785,0.00001701,-0.00000470,-0.00000
 452,-0.00053786,-0.00096302,-0.00003458,0.00010638,-0.00002322,0.00004
 718,-0.00000772,-0.00003300,0.00000979,-0.00000899,0.00001227,-0.00000
 627,0.00000561,-0.00001042,0.00001670,0.00000360,-0.00002710,0.0001078
 6,-0.00002315,0.00000299,0.00001384,0.00000194,0.00001149,-0.00000535,
 0.00004016,-0.00005191,-0.00016102,0.00005059,-0.00082370,0.00008098,0
 .00095903,0.00752513,0.00001092,0.00109511,0.00411873,0.00017337,0.047
 95255,-0.04812210,-0.00312561,0.00368816,0.00365659,-0.00077976,0.0012
 9935,0.00736384,0.00093961,0.00005287,-0.00011097,0.00000324,-0.000794
 87,-0.00407925,-0.00023562,-0.05308766,0.03561590,0.00001856,0.0000122
 7,0.00003275,0.00004337,-0.00003168,-0.00001191,-0.00002188,0.00000480
 ,-0.00000388,-0.00000607,-0.00004774,-0.00001351,-0.00001693,0.0000048
 0,-0.00002020,0.00002233,0.00001081,0.00000154,-0.00000762,-0.00002498
 ,0.00002213,-0.00001779,0.00001510,0.00001825,-0.00000778,-0.00001792,
 0.00002309,-0.00000807,0.00000958,-0.00001112,0.00001364,-0.00002544,-
 0.00000655,0.00005820,-0.00001178,0.00009280,-0.00016974,0.00003701,-0
 .00134913,0.00211100,0.00015284,-0.00484104,0.02916327,-0.00477647,0.0
 0259104,0.02477408,-0.00322356,-0.06291908,-0.02647798,0.00429988,0.00
 702476,-0.00283034,0.00085703,-0.00388522,0.00131535,-0.00023299,0.000
 00236,-0.00062069,-0.00009598,0.00106181,-0.02667703,0.00313406,0.0610
 1368,0.00002940,-0.00016467,-0.00010435,0.00002482,0.00033818,0.000164
 47,-0.00013966,-0.00022397,-0.00010583,0.00028798,0.00008539,0.0010694
 5,-0.00000527,0.00001117,0.00000742,0.00001894,0.00000245,0.00000735,0
 .00000126,-0.00000207,-0.00000471,0.00000124,0.00000770,-0.00001566,-0
 .00003002,-0.00009536,0.00004924,0.00000417,-0.00000205,-0.00000981,0.
 00001734,-0.00006052,0.00001361,-0.00041147,0.00018771,0.00033121,-0.0
 0494148,0.00199953,-0.00027128,-0.00099764,0.00000251,-0.00079116,-0.0
 0128622,0.00159829,-0.00333181,0.01174032,-0.00068866,-0.01785888,-0.1
 0803178,0.00789090,0.10678489,-0.00841952,0.00098667,0.02932938,0.0000
 6041,-0.00017113,0.00009594,0.00040273,-0.00002066,-0.00087388,0.00067
 676,-0.00084941,0.00059028,0.11017131,0.00003122,0.00013097,0.00012439
 ,-0.00001087,-0.00015008,-0.00007545,0.00008342,0.00010662,0.00003273,
 -0.00007305,0.00021775,-0.00036395,0.00001659,-0.00002804,0.00001542,-
 0.00000886,-0.00000626,0.00000288,-0.00000257,0.00001646,-0.00001522,0
 .00001191,-0.00000651,-0.00001161,0.00002345,-0.00001467,0.00002121,0.
 00000180,-0.00000035,0.00000272,0.00000367,0.00000661,0.00000765,-0.00
 017025,0.00003193,0.00015078,0.00211758,0.00712931,0.00045504,-0.00007
 852,-0.00105967,-0.00007001,0.00165050,0.00717788,0.00084402,-0.001683
 15,0.00411739,0.00387197,0.00767986,-0.04013376,-0.00910654,0.00219801
 ,0.00355303,-0.00513343,-0.00020541,-0.00097823,-0.00004270,-0.0000742
 9,0.00000708,0.00016902,-0.00079854,-0.00402097,-0.00027841,-0.0100023
 8,0.02822325,-0.00000350,0.00006560,0.00003559,-0.00004444,-0.00014609
 ,-0.00008260,0.00010400,0.00011920,0.00006339,-0.00043169,0.00004300,0
 .00003539,0.00002378,-0.00002281,0.00000418,-0.00001683,-0.00000795,-0
 .00000095,0.00000783,0.00001573,-0.00001057,0.00000880,-0.00001085,0.0
 0000379,0.00010008,0.00000532,-0.00001843,0.00000366,-0.00001332,0.000
 02391,-0.00001810,0.00005753,-0.00001142,0.00004636,-0.00001200,-0.000
 03118,-0.00007093,0.00013365,0.00183545,-0.00079112,0.00008572,0.00023
 446,-0.00373990,0.00098197,-0.00247191,0.01312436,-0.00144707,-0.01744
 829,0.10724438,-0.00906936,-0.29656456,-0.00166005,0.00035029,0.001680
 71,0.00008834,-0.00004669,-0.00003463,0.00063933,-0.00005813,-0.000969
 24,-0.00016139,-0.00016026,0.00098771,-0.11476121,0.00936952,0.3120073
 5,-0.00018981,0.00065668,0.00010151,0.00004034,-0.00117476,-0.00002004
 ,0.00017887,0.00043612,0.00018893,0.00049469,-0.00124843,0.00144374,-0
 .00192923,0.00205329,-0.00010489,-0.00143602,0.00006007,-0.00024342,-0
 .00038263,0.00085106,-0.00037726,-0.00016638,-0.00015121,-0.00013568,0
 .00040893,0.00039158,-0.00053656,-0.00008563,-0.00010831,-0.00006895,0
 .00004369,0.00000562,-0.00011597,0.00025021,-0.00013691,-0.00045376,0.
 01042303,-0.00173100,0.01239897,-0.00041394,0.00097422,0.00308043,-0.0
 0068527,-0.00005713,0.00083084,-0.00495195,0.00194758,0.00166272,-0.01
 241290,0.00325417,-0.02719983,-0.14617167,0.02012360,-0.13212716,0.000
 44104,-0.00006948,0.00067464,0.00004274,-0.00016882,-0.00012633,-0.000
 67733,0.00019965,-0.00124298,0.00097041,-0.00082052,0.00022085,0.15621
 982,-0.00043337,-0.00046360,0.00019122,-0.00061273,0.00049022,0.000636
 05,0.00019993,-0.00017260,-0.00004864,-0.00160740,-0.00227419,-0.00082
 388,0.00226452,-0.00061645,-0.00007992,-0.00002053,-0.00013213,0.00003
 207,0.00074796,-0.00093074,0.00069080,-0.00014882,-0.00008009,0.000285
 03,-0.00039901,-0.00056703,0.00077061,-0.00011208,0.00004844,0.0000190
 6,0.00017481,-0.00038372,-0.00009997,0.00026838,-0.00003007,-0.0001410
 9,0.00006808,0.00322332,-0.00158454,0.00093026,0.00639414,-0.00045862,
 0.00002190,-0.00107236,-0.00026439,0.00220800,0.00740854,0.00009823,0.
 00269022,0.00402026,0.00455646,0.02003036,-0.04209893,0.02502678,-0.00
 005016,0.00046927,-0.00004515,-0.00018648,-0.00101998,-0.00002408,0.00
 009846,-0.00011476,0.00020383,-0.00088700,-0.00429771,-0.00020127,-0.0
 2518427,0.03254157,0.00036341,-0.00016948,0.00020415,0.00059982,0.0003
 5197,-0.00000165,-0.00033115,-0.00025102,-0.00013139,-0.00149190,0.000
 43326,-0.00030997,-0.00131746,0.00058732,0.00016371,-0.00003161,0.0001
 1661,0.00000960,-0.00072854,0.00057204,0.00004881,-0.00028216,0.000216
 37,0.00010738,0.00046989,-0.00062363,-0.00012570,-0.00007957,0.0000842
 5,-0.00013329,0.00015120,-0.00033679,-0.00016006,-0.00003543,-0.000013
 99,0.00025839,-0.01698319,0.00327926,-0.01751196,0.00371998,-0.0004197
 6,-0.00369326,0.00084148,-0.00016268,0.00017788,0.00132591,-0.00014190
 ,0.00139126,0.00389364,-0.00074409,0.00680879,-0.13075216,0.02553955,-
 0.25761606,-0.00090780,0.00023145,-0.00085640,-0.00011172,0.00000689,0
 .00000506,0.00025174,-0.00007184,0.00018332,-0.00028453,-0.00002070,0.
 00073854,0.14209529,-0.02871075,0.27043403,-0.15748773,0.01548357,0.01
 475203,-0.03940660,-0.00118385,0.00163751,0.00830930,-0.00166416,-0.00
 148132,-0.03937455,0.01443454,0.00386851,0.00031929,-0.00000870,-0.000
 45888,-0.00116104,0.00008178,0.00089956,0.00007767,0.00027949,0.000168
 90,0.00015897,-0.00013360,0.00011835,0.00324094,-0.00312515,0.00161807
 ,-0.00023670,-0.00069683,0.00072084,0.00005194,0.00092844,-0.00039012,
 -0.00116088,-0.00096610,-0.00081764,0.00177955,-0.00403643,-0.00282569
 ,-0.00190573,-0.00011102,0.00112903,0.00017177,0.00034411,-0.00057428,
 -0.00030069,-0.00002468,0.00055854,-0.00074180,0.00052325,-0.00018871,
 0.00015541,-0.00006789,-0.00068497,0.00006291,-0.00017062,-0.00003283,
 -0.00023838,0.00009500,-0.00004623,-0.00011170,-0.00006681,0.00001160,
 -0.00017359,0.00008141,0.00008739,0.00019469,-0.00017606,-0.00010534,0
 .22797902,0.01623660,-0.03380256,-0.00855309,0.02723345,-0.00325063,-0
 .00505073,0.00321825,0.00097133,0.00176236,-0.01619687,-0.00228759,0.0
 0317555,-0.00021182,0.00059294,0.00066518,-0.00025287,-0.00055050,0.00
 037342,-0.00006523,-0.00008774,-0.00005066,0.00006933,-0.00007646,-0.0
 0024374,-0.00019625,0.00286981,-0.00168536,0.00029325,0.00029749,-0.00
 001410,-0.00038768,0.00059169,-0.00023740,-0.00491041,-0.00190173,-0.0
 0213242,-0.00104011,-0.00042734,-0.00265092,-0.00053774,0.00001771,0.0
 0028022,-0.00021818,0.00016467,-0.00003098,-0.00002405,-0.00000038,-0.
 00025191,0.00026829,-0.00009117,0.00014090,-0.00011513,0.00003857,-0.0
 0009971,0.00001003,-0.00006534,0.00006982,-0.00005227,0.00003592,0.000
 01161,-0.00000253,0.00000158,0.00000789,-0.00000324,-0.00002289,0.0000
 0241,0.00004723,0.00006791,0.00009066,-0.02369589,0.03950757,0.0148578
 5,-0.01158480,-0.02531631,0.01547633,-0.00119243,0.00166660,0.00013060
 ,0.00100739,-0.00245744,-0.00515822,0.00110050,-0.00306333,0.00039530,
 -0.00161007,-0.00119898,0.00098295,0.00118563,-0.00091523,0.00003541,0
 .00008289,0.00000375,-0.00010351,0.00013543,0.00022970,-0.00047114,-0.
 00130188,0.00163410,-0.00006987,0.00005425,-0.00000704,0.00015252,-0.0
 0016840,0.00014964,-0.00625346,0.00056225,0.00047034,-0.00003746,-0.00
 277491,0.00299307,0.00006711,0.00030517,-0.00030751,0.00039997,0.00012
 597,0.00011235,-0.00013020,-0.00002709,0.00042955,-0.00047479,0.000351
 00,-0.00015155,-0.00006487,-0.00001981,-0.00019387,-0.00006247,-0.0000
 9860,0.00001720,0.00002101,-0.00004876,-0.00003044,-0.00001353,-0.0000
 4659,0.00000596,-0.00003528,0.00003566,0.00001261,-0.00012402,-0.00024
 597,0.00002751,-0.01978773,0.01736559,0.02356818,-0.01007037,0.0044660
 5,0.00257138,-0.27279651,0.05066380,0.02382688,-0.02959813,-0.02004125
 ,-0.00885581,-0.00144528,-0.00223219,-0.00015406,0.00004368,0.00012059
 ,0.00022218,-0.00004309,-0.00006140,0.00007331,0.00000581,0.00001759,-
 0.00004028,-0.00001008,-0.00001841,-0.00006342,0.00005938,0.00125172,-
 0.00052140,0.00004147,-0.00003823,-0.00004657,-0.00013339,0.00010394,-
 0.00011417,0.00001154,0.00056911,0.00038034,-0.00126976,-0.00294101,-0
 .00153950,0.00122357,-0.00056089,0.00072413,-0.00074776,0.00033816,0.0
 0041829,-0.00009646,0.00027832,-0.00080301,0.00080207,-0.00063330,0.00
 031375,-0.00202643,-0.00258720,0.00014972,-0.00000070,0.00004448,-0.00
 000196,-0.00001085,-0.00001536,0.00000578,-0.00000521,0.00001947,-0.00
 001677,0.00002954,0.00002900,-0.00000001,-0.00020570,0.00011503,-0.000
 26980,-0.00020205,0.00053382,0.00026750,0.31644469,0.02239861,0.002560
 97,-0.00445927,0.04259728,-0.06883293,-0.00612746,-0.03683070,0.006582
 05,-0.00507823,0.00025019,-0.00128502,0.00047158,-0.00006756,0.0000669
 8,0.00004954,0.00001997,0.00007594,-0.00009137,-0.00000899,-0.00003793
 ,0.00000130,-0.00000835,0.00001207,-0.00003999,0.00002683,0.00047458,-
 0.00016270,0.00002897,0.00007006,-0.00005125,-0.00001847,-0.00000369,-
 0.00003174,-0.00026715,0.00004720,-0.00004253,-0.00095405,-0.00157010,
 -0.00123494,-0.00022679,-0.00000915,-0.00009626,0.00007810,-0.00004692
 ,0.00004390,0.00003290,0.00000038,0.00004940,-0.00022588,0.00005209,0.
 00004476,-0.00129402,-0.00129193,0.00034920,0.00002555,0.00000301,0.00
 006630,0.00002612,-0.00000739,0.00002652,0.00005254,0.00000510,0.00001
 704,0.00006060,0.00000085,-0.00003411,-0.00015004,-0.00040929,0.000157
 02,0.00387620,-0.00259285,-0.00319242,-0.02942185,0.06613592,0.0112716
 4,-0.00669338,0.00871471,0.02007344,-0.00482233,-0.05965216,-0.0172711
 0,-0.00564420,0.01526620,0.00020395,0.00089299,-0.00195259,0.00001940,
 -0.00011958,-0.00008696,0.00001310,-0.00005586,0.00015192,0.00000242,0
 .00000500,0.00001771,0.00000863,0.00001562,0.00004266,-0.00003739,-0.0
 0067352,0.00056929,-0.00000167,0.00004930,-0.00000440,0.00000396,-0.00
 006034,0.00004251,-0.00001738,0.00057489,0.00044449,0.00034808,-0.0006
 4237,0.00016497,-0.00044537,-0.00014648,-0.00046555,0.00030260,0.00001
 054,-0.00020956,0.00009510,-0.00009185,0.00030202,-0.00025504,0.000083
 27,-0.00004227,0.00016225,0.00060947,0.00029374,0.00000582,0.00002896,
 0.00002429,0.00002689,0.00002632,0.00000837,0.00000962,-0.00000080,0.0
 0000042,0.00000513,0.00001504,-0.00001932,0.00017897,0.00021814,-0.000
 01869,0.00182343,-0.00294458,0.00232115,-0.01652649,0.01936573,0.03408
 703\\0.00000055,0.00000118,-0.00000158,-0.00000166,0.00000107,0.000000
 08,-0.00000141,0.00000115,-0.00000037,-0.00000310,0.00000064,0.0000003
 2,0.00000171,0.00000175,-0.00000083,0.00000153,0.00000100,-0.00000082,
 0.00000192,0.00000005,-0.00000054,0.00000139,0.00000054,-0.00000106,0.
 00000023,-0.00000065,-0.00000137,0.00000197,0.00000210,-0.00000072,0.0
 0000188,-0.00000068,-0.00000019,0.00000297,-0.00000049,-0.00000020,-0.
 00000029,0.00000052,-0.00000078,-0.00000078,0.00000104,0.00000038,-0.0
 0000134,-0.00000139,0.00000175,-0.00000060,-0.00000201,0.00000085,0.00
 000055,-0.00000183,0.00000133,-0.00000046,-0.00000203,0.00000052,-0.00
 000262,0.00000022,0.00000137,-0.00000136,-0.00000180,0.00000130,-0.000
 00059,-0.00000254,0.00000174,0.00000038,-0.00000187,0.00000114,0.00000
 045,0.00000151,-0.00000021,0.00000009,0.00000259,-0.00000140,-0.000001
 39,-0.00000010,-0.00000071\\\@


 Children are likely to live up to what you believe of them.
 -- Lady Bird Johnson
 Job cpu time:       0 days 12 hours  2 minutes  2.2 seconds.
 Elapsed time:       0 days  0 hours 45 minutes 19.9 seconds.
 File lengths (MBytes):  RWF=    735 Int=      0 D2E=      0 Chk=     33 Scr=      1
 Normal termination of Gaussian 16 at Fri Mar 26 01:35:29 2021.
