 Entering Gaussian System, Link 0=g16
 Initial command:
 /apps/gaussian/16/A.03/g16/l1.exe "/beegfs/scratch/user/q/tla25/Gau-29910.inp" -scrdir="/beegfs/scratch/user/q/tla25/"
 Entering Link 1 = /apps/gaussian/16/A.03/g16/l1.exe PID=     29911.
  
 Copyright (c) 1988,1990,1992,1993,1995,1998,2003,2009,2016,
            Gaussian, Inc.  All Rights Reserved.
  
 This is part of the Gaussian(R) 16 program.  It is based on
 the Gaussian(R) 09 system (copyright 2009, Gaussian, Inc.),
 the Gaussian(R) 03 system (copyright 2003, Gaussian, Inc.),
 the Gaussian(R) 98 system (copyright 1998, Gaussian, Inc.),
 the Gaussian(R) 94 system (copyright 1995, Gaussian, Inc.),
 the Gaussian 92(TM) system (copyright 1992, Gaussian, Inc.),
 the Gaussian 90(TM) system (copyright 1990, Gaussian, Inc.),
 the Gaussian 88(TM) system (copyright 1988, Gaussian, Inc.),
 the Gaussian 86(TM) system (copyright 1986, Carnegie Mellon
 University), and the Gaussian 82(TM) system (copyright 1983,
 Carnegie Mellon University). Gaussian is a federally registered
 trademark of Gaussian, Inc.
  
 This software contains proprietary and confidential information,
 including trade secrets, belonging to Gaussian, Inc.
  
 This software is provided under written license and may be
 used, copied, transmitted, or stored only in accord with that
 written license.
  
 The following legend is applicable only to US Government
 contracts under FAR:
  
                    RESTRICTED RIGHTS LEGEND
  
 Use, reproduction and disclosure by the US Government is
 subject to restrictions as set forth in subparagraphs (a)
 and (c) of the Commercial Computer Software - Restricted
 Rights clause in FAR 52.227-19.
  
 Gaussian, Inc.
 340 Quinnipiac St., Bldg. 40, Wallingford CT 06492
  
  
 ---------------------------------------------------------------
 Warning -- This program may not be used in any manner that
 competes with the business of Gaussian, Inc. or will provide
 assistance to any competitor of Gaussian, Inc.  The licensee
 of this program is prohibited from giving any competitor of
 Gaussian, Inc. access to this program.  By using this program,
 the user acknowledges that Gaussian, Inc. is engaged in the
 business of creating and licensing software in the field of
 computational chemistry and represents and warrants to the
 licensee that it is not a competitor of Gaussian, Inc. and that
 it will not use this program in any manner prohibited above.
 ---------------------------------------------------------------
  

 Cite this work as:
 Gaussian 16, Revision A.03,
 M. J. Frisch, G. W. Trucks, H. B. Schlegel, G. E. Scuseria, 
 M. A. Robb, J. R. Cheeseman, G. Scalmani, V. Barone, 
 G. A. Petersson, H. Nakatsuji, X. Li, M. Caricato, A. V. Marenich, 
 J. Bloino, B. G. Janesko, R. Gomperts, B. Mennucci, H. P. Hratchian, 
 J. V. Ortiz, A. F. Izmaylov, J. L. Sonnenberg, D. Williams-Young, 
 F. Ding, F. Lipparini, F. Egidi, J. Goings, B. Peng, A. Petrone, 
 T. Henderson, D. Ranasinghe, V. G. Zakrzewski, J. Gao, N. Rega, 
 G. Zheng, W. Liang, M. Hada, M. Ehara, K. Toyota, R. Fukuda, 
 J. Hasegawa, M. Ishida, T. Nakajima, Y. Honda, O. Kitao, H. Nakai, 
 T. Vreven, K. Throssell, J. A. Montgomery, Jr., J. E. Peralta, 
 F. Ogliaro, M. J. Bearpark, J. J. Heyd, E. N. Brothers, K. N. Kudin, 
 V. N. Staroverov, T. A. Keith, R. Kobayashi, J. Normand, 
 K. Raghavachari, A. P. Rendell, J. C. Burant, S. S. Iyengar, 
 J. Tomasi, M. Cossi, J. M. Millam, M. Klene, C. Adamo, R. Cammi, 
 J. W. Ochterski, R. L. Martin, K. Morokuma, O. Farkas, 
 J. B. Foresman, and D. J. Fox, Gaussian, Inc., Wallingford CT, 2016.
 
 ******************************************
 Gaussian 16:  ES64L-G16RevA.03 25-Dec-2016
                31-Jan-2021 
 ******************************************
 %nprocshared=16
 Will use up to   16 processors via shared memory.
 %mem=48GB
 ----------------------------------------------------------------------
 # wB97XD def2tzvp, opt=(ts, noeigen, calcfc, maxcycles=70, maxstep=3),
  freq=noraman, scrf=(iefpcm, solvent=water)
 ----------------------------------------------------------------------
 1/5=1,6=70,8=3,10=4,11=1,18=20,26=3,38=1/1,3;
 2/9=110,12=2,17=6,18=5,40=1/2;
 3/5=44,7=101,11=2,25=1,30=1,70=2201,71=2,72=1,74=-58,140=1/1,2,3;
 4//1;
 5/5=2,38=5,53=1/2;
 8/6=4,10=90,11=11/1;
 11/6=1,8=1,9=11,15=111,16=1/1,2,10;
 10/6=1,13=1/2;
 6/7=2,8=2,9=2,10=2,28=1/1;
 7/10=1,18=20,25=1/1,2,3,16;
 1/5=1,6=70,8=3,10=4,11=1,18=20,26=3/3(2);
 2/9=110/2;
 99//99;
 2/9=110/2;
 3/5=44,7=101,11=2,25=1,30=1,70=2205,71=1,72=1,74=-58/1,2,3;
 4/5=5,16=3,69=1/1;
 5/5=2,38=5,53=1/2;
 7//1,2,3,16;
 1/5=1,6=70,8=3,11=1,18=20,26=3/3(-5);
 2/9=110/2;
 6/7=2,8=2,9=2,10=2,19=2,28=1/1;
 99/9=1/99;
 -----------------------
 3_iteration/TS-83-3.out
 -----------------------
 Symbolic Z-matrix:
 Charge =  0 Multiplicity = 1
 C                    -0.73456  -0.98967  -0.32248 
 C                    -1.45009  -2.23516  -0.32352 
 O                    -0.91747  -3.35533  -0.1492 
 C                     0.68936  -1.00832  -0.41624 
 C                     2.65907  -2.23098   1.44173 
 H                     2.79275  -2.69921   2.41856 
 H                     3.06075  -2.89564   0.68019 
 H                     3.21349  -1.29253   1.42012 
 N                     1.25324  -1.96466   1.16147 
 H                     0.70084  -2.80402   0.98329 
 H                     0.80864  -1.45689   1.91526 
 C                     1.40966   0.30184  -0.22554 
 C                     1.24254   1.0429    0.94472 
 C                     1.89085   2.25061   1.12817 
 C                     2.72011   2.75481   0.1345 
 C                     2.89758   2.03084  -1.03226 
 C                     2.25558   0.81133  -1.2052 
 H                     0.58003   0.68342   1.72134 
 H                     1.74466   2.80305   2.04773 
 H                     3.22437   3.70277   0.27262 
 H                     3.54144   2.41038  -1.81563 
 H                     2.4124    0.26881  -2.12698 
 C                     1.34194  -1.92458  -1.43316 
 H                     1.14935  -1.52263  -2.42946 
 H                     2.42171  -1.98645  -1.30017 
 H                     0.90931  -2.91819  -1.38487 
 C                    -1.4867    0.2779   -0.12319 
 C                    -2.28882   0.48663   1.0034 
 C                    -2.9845    1.67174   1.19 
 C                    -2.88814   2.69261   0.25435 
 C                    -2.10141   2.50609  -0.87384 
 C                    -1.42252   1.31184  -1.06162 
 H                    -2.35315  -0.29408   1.75306 
 H                    -3.5924    1.80411   2.07688 
 H                    -3.423     3.62248   0.40167 
 H                    -2.02295   3.2911   -1.6163 
 H                    -0.81737   1.17424  -1.94973 
 N                    -2.80921  -2.20662  -0.5365 
 H                    -3.30007  -1.33153  -0.48896 
 H                    -3.31895  -3.02031  -0.23866 
 
 Add virtual bond connecting atoms N9         and C4         Dist= 3.65D+00.
 Add virtual bond connecting atoms H10        and O3         Dist= 3.88D+00.

 GradGradGradGradGradGradGradGradGradGradGradGradGradGradGradGradGradGrad
 Berny optimization.
 Initialization pass.
                           ----------------------------
                           !    Initial Parameters    !
                           ! (Angstroms and Degrees)  !
 --------------------------                            --------------------------
 ! Name  Definition              Value          Derivative Info.                !
 --------------------------------------------------------------------------------
 ! R1    R(1,2)                  1.4364         calculate D2E/DX2 analytically  !
 ! R2    R(1,4)                  1.4271         calculate D2E/DX2 analytically  !
 ! R3    R(1,27)                 1.4873         calculate D2E/DX2 analytically  !
 ! R4    R(2,3)                  1.2525         calculate D2E/DX2 analytically  !
 ! R5    R(2,38)                 1.376          calculate D2E/DX2 analytically  !
 ! R6    R(3,10)                 2.0507         calculate D2E/DX2 analytically  !
 ! R7    R(4,9)                  1.9292         calculate D2E/DX2 analytically  !
 ! R8    R(4,12)                 1.5072         calculate D2E/DX2 analytically  !
 ! R9    R(4,23)                 1.5164         calculate D2E/DX2 analytically  !
 ! R10   R(5,6)                  1.0915         calculate D2E/DX2 analytically  !
 ! R11   R(5,7)                  1.0877         calculate D2E/DX2 analytically  !
 ! R12   R(5,8)                  1.0902         calculate D2E/DX2 analytically  !
 ! R13   R(5,9)                  1.458          calculate D2E/DX2 analytically  !
 ! R14   R(9,10)                 1.0205         calculate D2E/DX2 analytically  !
 ! R15   R(9,11)                 1.0118         calculate D2E/DX2 analytically  !
 ! R16   R(12,13)                1.3952         calculate D2E/DX2 analytically  !
 ! R17   R(12,17)                1.391          calculate D2E/DX2 analytically  !
 ! R18   R(13,14)                1.3829         calculate D2E/DX2 analytically  !
 ! R19   R(13,18)                1.0823         calculate D2E/DX2 analytically  !
 ! R20   R(14,15)                1.389          calculate D2E/DX2 analytically  !
 ! R21   R(14,19)                1.0827         calculate D2E/DX2 analytically  !
 ! R22   R(15,16)                1.3845         calculate D2E/DX2 analytically  !
 ! R23   R(15,20)                1.0826         calculate D2E/DX2 analytically  !
 ! R24   R(16,17)                1.389          calculate D2E/DX2 analytically  !
 ! R25   R(16,21)                1.0827         calculate D2E/DX2 analytically  !
 ! R26   R(17,22)                1.081          calculate D2E/DX2 analytically  !
 ! R27   R(23,24)                1.0915         calculate D2E/DX2 analytically  !
 ! R28   R(23,25)                1.0897         calculate D2E/DX2 analytically  !
 ! R29   R(23,26)                1.0848         calculate D2E/DX2 analytically  !
 ! R30   R(27,28)                1.3986         calculate D2E/DX2 analytically  !
 ! R31   R(27,32)                1.3978         calculate D2E/DX2 analytically  !
 ! R32   R(28,29)                1.3868         calculate D2E/DX2 analytically  !
 ! R33   R(28,33)                1.0843         calculate D2E/DX2 analytically  !
 ! R34   R(29,30)                1.3881         calculate D2E/DX2 analytically  !
 ! R35   R(29,34)                1.0833         calculate D2E/DX2 analytically  !
 ! R36   R(30,31)                1.388          calculate D2E/DX2 analytically  !
 ! R37   R(30,35)                1.0828         calculate D2E/DX2 analytically  !
 ! R38   R(31,32)                1.3865         calculate D2E/DX2 analytically  !
 ! R39   R(31,36)                1.0833         calculate D2E/DX2 analytically  !
 ! R40   R(32,37)                1.0835         calculate D2E/DX2 analytically  !
 ! R41   R(38,39)                1.0045         calculate D2E/DX2 analytically  !
 ! R42   R(38,40)                1.0053         calculate D2E/DX2 analytically  !
 ! A1    A(2,1,4)              119.0548         calculate D2E/DX2 analytically  !
 ! A2    A(2,1,27)             119.1543         calculate D2E/DX2 analytically  !
 ! A3    A(4,1,27)             121.6347         calculate D2E/DX2 analytically  !
 ! A4    A(1,2,3)              124.3005         calculate D2E/DX2 analytically  !
 ! A5    A(1,2,38)             118.3046         calculate D2E/DX2 analytically  !
 ! A6    A(3,2,38)             117.394          calculate D2E/DX2 analytically  !
 ! A7    A(2,3,10)              99.9042         calculate D2E/DX2 analytically  !
 ! A8    A(1,4,9)              104.1454         calculate D2E/DX2 analytically  !
 ! A9    A(1,4,12)             117.2036         calculate D2E/DX2 analytically  !
 ! A10   A(1,4,23)             118.7724         calculate D2E/DX2 analytically  !
 ! A11   A(9,4,12)             100.8216         calculate D2E/DX2 analytically  !
 ! A12   A(9,4,23)              97.0721         calculate D2E/DX2 analytically  !
 ! A13   A(12,4,23)            113.8544         calculate D2E/DX2 analytically  !
 ! A14   A(6,5,7)              108.6165         calculate D2E/DX2 analytically  !
 ! A15   A(6,5,8)              108.9493         calculate D2E/DX2 analytically  !
 ! A16   A(6,5,9)              111.622          calculate D2E/DX2 analytically  !
 ! A17   A(7,5,8)              108.9252         calculate D2E/DX2 analytically  !
 ! A18   A(7,5,9)              109.4579         calculate D2E/DX2 analytically  !
 ! A19   A(8,5,9)              109.2263         calculate D2E/DX2 analytically  !
 ! A20   A(4,9,5)              121.9768         calculate D2E/DX2 analytically  !
 ! A21   A(4,9,10)              96.1265         calculate D2E/DX2 analytically  !
 ! A22   A(4,9,11)             103.4184         calculate D2E/DX2 analytically  !
 ! A23   A(5,9,10)             113.9069         calculate D2E/DX2 analytically  !
 ! A24   A(5,9,11)             111.8487         calculate D2E/DX2 analytically  !
 ! A25   A(10,9,11)            107.7579         calculate D2E/DX2 analytically  !
 ! A26   A(3,10,9)             138.1342         calculate D2E/DX2 analytically  !
 ! A27   A(4,12,13)            120.7027         calculate D2E/DX2 analytically  !
 ! A28   A(4,12,17)            121.3259         calculate D2E/DX2 analytically  !
 ! A29   A(13,12,17)           117.9713         calculate D2E/DX2 analytically  !
 ! A30   A(12,13,14)           121.2624         calculate D2E/DX2 analytically  !
 ! A31   A(12,13,18)           119.9203         calculate D2E/DX2 analytically  !
 ! A32   A(14,13,18)           118.8065         calculate D2E/DX2 analytically  !
 ! A33   A(13,14,15)           120.1316         calculate D2E/DX2 analytically  !
 ! A34   A(13,14,19)           119.6682         calculate D2E/DX2 analytically  !
 ! A35   A(15,14,19)           120.1996         calculate D2E/DX2 analytically  !
 ! A36   A(14,15,16)           119.3131         calculate D2E/DX2 analytically  !
 ! A37   A(14,15,20)           120.31           calculate D2E/DX2 analytically  !
 ! A38   A(16,15,20)           120.3766         calculate D2E/DX2 analytically  !
 ! A39   A(15,16,17)           120.3163         calculate D2E/DX2 analytically  !
 ! A40   A(15,16,21)           120.175          calculate D2E/DX2 analytically  !
 ! A41   A(17,16,21)           119.5084         calculate D2E/DX2 analytically  !
 ! A42   A(12,17,16)           120.9962         calculate D2E/DX2 analytically  !
 ! A43   A(12,17,22)           120.3274         calculate D2E/DX2 analytically  !
 ! A44   A(16,17,22)           118.6687         calculate D2E/DX2 analytically  !
 ! A45   A(4,23,24)            108.2817         calculate D2E/DX2 analytically  !
 ! A46   A(4,23,25)            112.2649         calculate D2E/DX2 analytically  !
 ! A47   A(4,23,26)            110.6073         calculate D2E/DX2 analytically  !
 ! A48   A(24,23,25)           107.8882         calculate D2E/DX2 analytically  !
 ! A49   A(24,23,26)           107.9135         calculate D2E/DX2 analytically  !
 ! A50   A(25,23,26)           109.7397         calculate D2E/DX2 analytically  !
 ! A51   A(1,27,28)            121.6774         calculate D2E/DX2 analytically  !
 ! A52   A(1,27,32)            121.1464         calculate D2E/DX2 analytically  !
 ! A53   A(28,27,32)           117.176          calculate D2E/DX2 analytically  !
 ! A54   A(27,28,29)           121.5743         calculate D2E/DX2 analytically  !
 ! A55   A(27,28,33)           118.9133         calculate D2E/DX2 analytically  !
 ! A56   A(29,28,33)           119.506          calculate D2E/DX2 analytically  !
 ! A57   A(28,29,30)           120.1951         calculate D2E/DX2 analytically  !
 ! A58   A(28,29,34)           119.7392         calculate D2E/DX2 analytically  !
 ! A59   A(30,29,34)           120.0593         calculate D2E/DX2 analytically  !
 ! A60   A(29,30,31)           119.2346         calculate D2E/DX2 analytically  !
 ! A61   A(29,30,35)           120.3691         calculate D2E/DX2 analytically  !
 ! A62   A(31,30,35)           120.396          calculate D2E/DX2 analytically  !
 ! A63   A(30,31,32)           120.2228         calculate D2E/DX2 analytically  !
 ! A64   A(30,31,36)           120.0483         calculate D2E/DX2 analytically  !
 ! A65   A(32,31,36)           119.7265         calculate D2E/DX2 analytically  !
 ! A66   A(27,32,31)           121.5824         calculate D2E/DX2 analytically  !
 ! A67   A(27,32,37)           118.8177         calculate D2E/DX2 analytically  !
 ! A68   A(31,32,37)           119.5966         calculate D2E/DX2 analytically  !
 ! A69   A(2,38,39)            119.5655         calculate D2E/DX2 analytically  !
 ! A70   A(2,38,40)            115.9881         calculate D2E/DX2 analytically  !
 ! A71   A(39,38,40)           116.3167         calculate D2E/DX2 analytically  !
 ! D1    D(4,1,2,3)             14.061          calculate D2E/DX2 analytically  !
 ! D2    D(4,1,2,38)          -165.5641         calculate D2E/DX2 analytically  !
 ! D3    D(27,1,2,3)          -161.47           calculate D2E/DX2 analytically  !
 ! D4    D(27,1,2,38)           18.9048         calculate D2E/DX2 analytically  !
 ! D5    D(2,1,4,9)            -61.6641         calculate D2E/DX2 analytically  !
 ! D6    D(2,1,4,12)          -171.9831         calculate D2E/DX2 analytically  !
 ! D7    D(2,1,4,23)            44.7899         calculate D2E/DX2 analytically  !
 ! D8    D(27,1,4,9)           113.7518         calculate D2E/DX2 analytically  !
 ! D9    D(27,1,4,12)            3.4328         calculate D2E/DX2 analytically  !
 ! D10   D(27,1,4,23)         -139.7943         calculate D2E/DX2 analytically  !
 ! D11   D(2,1,27,28)           56.3775         calculate D2E/DX2 analytically  !
 ! D12   D(2,1,27,32)         -123.4331         calculate D2E/DX2 analytically  !
 ! D13   D(4,1,27,28)         -119.0339         calculate D2E/DX2 analytically  !
 ! D14   D(4,1,27,32)           61.1555         calculate D2E/DX2 analytically  !
 ! D15   D(1,2,3,10)            27.238          calculate D2E/DX2 analytically  !
 ! D16   D(38,2,3,10)         -153.1337         calculate D2E/DX2 analytically  !
 ! D17   D(1,2,38,39)          -13.0688         calculate D2E/DX2 analytically  !
 ! D18   D(1,2,38,40)         -160.588          calculate D2E/DX2 analytically  !
 ! D19   D(3,2,38,39)          167.28           calculate D2E/DX2 analytically  !
 ! D20   D(3,2,38,40)           19.7608         calculate D2E/DX2 analytically  !
 ! D21   D(2,3,10,9)           -22.0886         calculate D2E/DX2 analytically  !
 ! D22   D(1,4,9,5)            178.8502         calculate D2E/DX2 analytically  !
 ! D23   D(1,4,9,10)            55.6546         calculate D2E/DX2 analytically  !
 ! D24   D(1,4,9,11)           -54.2811         calculate D2E/DX2 analytically  !
 ! D25   D(12,4,9,5)           -59.2687         calculate D2E/DX2 analytically  !
 ! D26   D(12,4,9,10)          177.5357         calculate D2E/DX2 analytically  !
 ! D27   D(12,4,9,11)           67.6001         calculate D2E/DX2 analytically  !
 ! D28   D(23,4,9,5)            56.7464         calculate D2E/DX2 analytically  !
 ! D29   D(23,4,9,10)          -66.4492         calculate D2E/DX2 analytically  !
 ! D30   D(23,4,9,11)         -176.3848         calculate D2E/DX2 analytically  !
 ! D31   D(1,4,12,13)           57.1359         calculate D2E/DX2 analytically  !
 ! D32   D(1,4,12,17)         -122.7123         calculate D2E/DX2 analytically  !
 ! D33   D(9,4,12,13)          -55.0743         calculate D2E/DX2 analytically  !
 ! D34   D(9,4,12,17)          125.0775         calculate D2E/DX2 analytically  !
 ! D35   D(23,4,12,13)        -157.8761         calculate D2E/DX2 analytically  !
 ! D36   D(23,4,12,17)          22.2757         calculate D2E/DX2 analytically  !
 ! D37   D(1,4,23,24)           70.9332         calculate D2E/DX2 analytically  !
 ! D38   D(1,4,23,25)         -170.067          calculate D2E/DX2 analytically  !
 ! D39   D(1,4,23,26)          -47.1205         calculate D2E/DX2 analytically  !
 ! D40   D(9,4,23,24)         -178.6365         calculate D2E/DX2 analytically  !
 ! D41   D(9,4,23,25)          -59.6367         calculate D2E/DX2 analytically  !
 ! D42   D(9,4,23,26)           63.3098         calculate D2E/DX2 analytically  !
 ! D43   D(12,4,23,24)         -73.4643         calculate D2E/DX2 analytically  !
 ! D44   D(12,4,23,25)          45.5355         calculate D2E/DX2 analytically  !
 ! D45   D(12,4,23,26)         168.482          calculate D2E/DX2 analytically  !
 ! D46   D(6,5,9,4)            174.7289         calculate D2E/DX2 analytically  !
 ! D47   D(6,5,9,10)           -70.7917         calculate D2E/DX2 analytically  !
 ! D48   D(6,5,9,11)            51.6998         calculate D2E/DX2 analytically  !
 ! D49   D(7,5,9,4)            -64.9909         calculate D2E/DX2 analytically  !
 ! D50   D(7,5,9,10)            49.4886         calculate D2E/DX2 analytically  !
 ! D51   D(7,5,9,11)           171.9801         calculate D2E/DX2 analytically  !
 ! D52   D(8,5,9,4)             54.1862         calculate D2E/DX2 analytically  !
 ! D53   D(8,5,9,10)           168.6656         calculate D2E/DX2 analytically  !
 ! D54   D(8,5,9,11)           -68.8428         calculate D2E/DX2 analytically  !
 ! D55   D(4,9,10,3)           -18.712          calculate D2E/DX2 analytically  !
 ! D56   D(5,9,10,3)          -147.7756         calculate D2E/DX2 analytically  !
 ! D57   D(11,9,10,3)           87.5152         calculate D2E/DX2 analytically  !
 ! D58   D(4,12,13,14)        -179.5701         calculate D2E/DX2 analytically  !
 ! D59   D(4,12,13,18)          -0.7799         calculate D2E/DX2 analytically  !
 ! D60   D(17,12,13,14)          0.2831         calculate D2E/DX2 analytically  !
 ! D61   D(17,12,13,18)        179.0733         calculate D2E/DX2 analytically  !
 ! D62   D(4,12,17,16)         178.8531         calculate D2E/DX2 analytically  !
 ! D63   D(4,12,17,22)          -0.1215         calculate D2E/DX2 analytically  !
 ! D64   D(13,12,17,16)         -0.9991         calculate D2E/DX2 analytically  !
 ! D65   D(13,12,17,22)       -179.9737         calculate D2E/DX2 analytically  !
 ! D66   D(12,13,14,15)          0.4816         calculate D2E/DX2 analytically  !
 ! D67   D(12,13,14,19)       -179.8309         calculate D2E/DX2 analytically  !
 ! D68   D(18,13,14,15)       -178.3218         calculate D2E/DX2 analytically  !
 ! D69   D(18,13,14,19)          1.3656         calculate D2E/DX2 analytically  !
 ! D70   D(13,14,15,16)         -0.5366         calculate D2E/DX2 analytically  !
 ! D71   D(13,14,15,20)        179.6337         calculate D2E/DX2 analytically  !
 ! D72   D(19,14,15,16)        179.7776         calculate D2E/DX2 analytically  !
 ! D73   D(19,14,15,20)         -0.0521         calculate D2E/DX2 analytically  !
 ! D74   D(14,15,16,17)         -0.1725         calculate D2E/DX2 analytically  !
 ! D75   D(14,15,16,21)       -179.9539         calculate D2E/DX2 analytically  !
 ! D76   D(20,15,16,17)        179.6571         calculate D2E/DX2 analytically  !
 ! D77   D(20,15,16,21)         -0.1243         calculate D2E/DX2 analytically  !
 ! D78   D(15,16,17,12)          0.9579         calculate D2E/DX2 analytically  !
 ! D79   D(15,16,17,22)        179.9491         calculate D2E/DX2 analytically  !
 ! D80   D(21,16,17,12)       -179.2593         calculate D2E/DX2 analytically  !
 ! D81   D(21,16,17,22)         -0.2681         calculate D2E/DX2 analytically  !
 ! D82   D(1,27,28,29)         179.7075         calculate D2E/DX2 analytically  !
 ! D83   D(1,27,28,33)           0.634          calculate D2E/DX2 analytically  !
 ! D84   D(32,27,28,29)         -0.4747         calculate D2E/DX2 analytically  !
 ! D85   D(32,27,28,33)       -179.5482         calculate D2E/DX2 analytically  !
 ! D86   D(1,27,32,31)        -178.8678         calculate D2E/DX2 analytically  !
 ! D87   D(1,27,32,37)           0.4658         calculate D2E/DX2 analytically  !
 ! D88   D(28,27,32,31)          1.3133         calculate D2E/DX2 analytically  !
 ! D89   D(28,27,32,37)       -179.353          calculate D2E/DX2 analytically  !
 ! D90   D(27,28,29,30)         -0.5387         calculate D2E/DX2 analytically  !
 ! D91   D(27,28,29,34)       -179.6216         calculate D2E/DX2 analytically  !
 ! D92   D(33,28,29,30)        178.5295         calculate D2E/DX2 analytically  !
 ! D93   D(33,28,29,34)         -0.5534         calculate D2E/DX2 analytically  !
 ! D94   D(28,29,30,31)          0.7363         calculate D2E/DX2 analytically  !
 ! D95   D(28,29,30,35)       -179.4461         calculate D2E/DX2 analytically  !
 ! D96   D(34,29,30,31)        179.8163         calculate D2E/DX2 analytically  !
 ! D97   D(34,29,30,35)         -0.3661         calculate D2E/DX2 analytically  !
 ! D98   D(29,30,31,32)          0.0874         calculate D2E/DX2 analytically  !
 ! D99   D(29,30,31,36)        179.5245         calculate D2E/DX2 analytically  !
 ! D100  D(35,30,31,32)       -179.7302         calculate D2E/DX2 analytically  !
 ! D101  D(35,30,31,36)         -0.2931         calculate D2E/DX2 analytically  !
 ! D102  D(30,31,32,27)         -1.1426         calculate D2E/DX2 analytically  !
 ! D103  D(30,31,32,37)        179.5289         calculate D2E/DX2 analytically  !
 ! D104  D(36,31,32,27)        179.4185         calculate D2E/DX2 analytically  !
 ! D105  D(36,31,32,37)          0.0899         calculate D2E/DX2 analytically  !
 --------------------------------------------------------------------------------
 Trust Radius=3.00D-02 FncErr=1.00D-07 GrdErr=1.00D-06 EigMax=2.50D+02 EigMin=1.00D-04
 Number of steps in this run=     70 maximum allowed number of steps=    240.
 Search for a saddle point of order  1.
 GradGradGradGradGradGradGradGradGradGradGradGradGradGradGradGradGradGrad

                          Input orientation:                          
 ---------------------------------------------------------------------
 Center     Atomic      Atomic             Coordinates (Angstroms)
 Number     Number       Type             X           Y           Z
 ---------------------------------------------------------------------
      1          6           0       -0.734560   -0.989670   -0.322480
      2          6           0       -1.450090   -2.235160   -0.323520
      3          8           0       -0.917470   -3.355330   -0.149200
      4          6           0        0.689360   -1.008320   -0.416240
      5          6           0        2.659070   -2.230980    1.441730
      6          1           0        2.792750   -2.699210    2.418560
      7          1           0        3.060750   -2.895640    0.680190
      8          1           0        3.213490   -1.292530    1.420120
      9          7           0        1.253240   -1.964660    1.161470
     10          1           0        0.700840   -2.804020    0.983290
     11          1           0        0.808640   -1.456890    1.915260
     12          6           0        1.409660    0.301840   -0.225540
     13          6           0        1.242540    1.042900    0.944720
     14          6           0        1.890850    2.250610    1.128170
     15          6           0        2.720110    2.754810    0.134500
     16          6           0        2.897580    2.030840   -1.032260
     17          6           0        2.255580    0.811330   -1.205200
     18          1           0        0.580030    0.683420    1.721340
     19          1           0        1.744660    2.803050    2.047730
     20          1           0        3.224370    3.702770    0.272620
     21          1           0        3.541440    2.410380   -1.815630
     22          1           0        2.412400    0.268810   -2.126980
     23          6           0        1.341940   -1.924580   -1.433160
     24          1           0        1.149350   -1.522630   -2.429460
     25          1           0        2.421710   -1.986450   -1.300170
     26          1           0        0.909310   -2.918190   -1.384870
     27          6           0       -1.486700    0.277900   -0.123190
     28          6           0       -2.288820    0.486630    1.003400
     29          6           0       -2.984500    1.671740    1.190000
     30          6           0       -2.888140    2.692610    0.254350
     31          6           0       -2.101410    2.506090   -0.873840
     32          6           0       -1.422520    1.311840   -1.061620
     33          1           0       -2.353150   -0.294080    1.753060
     34          1           0       -3.592400    1.804110    2.076880
     35          1           0       -3.423000    3.622480    0.401670
     36          1           0       -2.022950    3.291100   -1.616300
     37          1           0       -0.817370    1.174240   -1.949730
     38          7           0       -2.809210   -2.206620   -0.536500
     39          1           0       -3.300070   -1.331530   -0.488960
     40          1           0       -3.318950   -3.020310   -0.238660
 ---------------------------------------------------------------------
                    Distance matrix (angstroms):
                    1          2          3          4          5
     1  C    0.000000
     2  C    1.436395   0.000000
     3  O    2.379040   1.252538   0.000000
     4  C    1.427125   2.467991   2.856863   0.000000
     5  C    4.021195   4.472284   4.072697   2.970978   0.000000
     6  H    4.783068   5.073070   4.559563   3.914007   1.091470
     7  H    4.363765   4.668120   4.089674   3.222984   1.087687
     8  H    4.326139   5.067328   4.876755   3.134362   1.090200
     9  N    2.665345   3.096185   2.892024   1.929175   1.458023
    10  H    2.656553   2.580282   2.050708   2.276698   2.091221
    11  H    2.758123   3.274095   3.293255   2.377254   2.060955
    12  C    2.505010   3.824152   4.335465   1.507222   3.279633
    13  C    3.105811   4.427682   5.020631   2.523039   3.601648
    14  C    4.415493   5.778531   6.398820   3.801237   4.557755
    15  C    5.115145   6.519214   7.116620   4.311428   5.154675
    16  C    4.776998   6.132153   6.659221   3.806864   4.933622
    17  C    3.600518   4.877546   5.342699   2.527178   4.052739
    18  H    2.950352   4.101335   4.696054   2.728220   3.590866
    19  H    5.113624   6.419721   7.059680   4.659544   5.152168
    20  H    6.168165   7.580565   8.194483   5.393994   6.074189
    21  H    5.663392   6.980172   7.476783   4.666922   5.738571
    22  H    3.839707   4.943800   5.304153   2.743458   4.364114
    23  C    2.533677   3.020462   2.966569   1.516417   3.177059
    24  H    2.876200   3.420493   3.581916   2.128182   4.215107
    25  H    3.451302   4.000817   3.787966   2.176949   2.762997
    26  H    2.747757   2.675773   2.248354   2.152725   3.394641
    27  C    1.487335   2.521298   3.677643   2.544696   5.092235
    28  C    2.520544   3.142026   4.239074   3.622128   5.662080
    29  C    3.799069   4.461953   5.597991   4.822860   6.866183
    30  C    4.304628   5.165737   6.373694   5.190865   7.511534
    31  C    3.793760   4.817315   6.023542   4.510972   7.103792
    32  C    2.513278   3.623087   4.782265   3.203076   5.956317
    33  H    2.722415   2.982531   3.879565   3.804322   5.382458
    34  H    4.661479   5.164021   6.223384   5.697269   7.467680
    35  H    5.387396   6.223361   7.434445   6.246982   8.505075
    36  H    4.653913   5.704296   6.895615   5.223197   7.859149
    37  H    2.708746   3.830000   4.875339   3.063559   5.931539
    38  N    2.414735   1.376002   2.246824   3.700051   5.815159
    39  H    2.593535   2.065513   3.144517   4.003162   6.328343
    40  H    3.287795   2.028867   2.426386   4.488450   6.259671
                    6          7          8          9         10
     6  H    0.000000
     7  H    1.769842   0.000000
     8  H    1.775571   1.772227   0.000000
     9  N    2.118945   2.089365   2.088358   0.000000
    10  H    2.539109   2.381058   2.964597   1.020499   0.000000
    11  H    2.394444   2.944045   2.460789   1.011780   1.641630
    12  C    4.232080   3.710839   2.916164   2.661820   3.407354
    13  C    4.310307   4.346028   3.092714   3.015379   3.885064
    14  C    5.194155   5.296531   3.793211   4.263350   5.194843
    15  C    5.913420   5.686950   4.275185   5.047749   5.974821
    16  C    5.855982   5.218172   4.142313   4.845650   5.680139
    17  C    5.073862   4.236109   3.498017   3.783112   4.503050
    18  H    4.101760   4.477459   3.306089   2.789085   3.566728
    19  H    5.613455   6.006440   4.396036   4.874219   5.801881
    20  H    6.765848   6.613010   5.125417   6.065902   7.015096
    21  H    6.678084   5.883369   4.928405   5.765411   6.564520
    22  H    5.442035   4.279522   3.957455   4.140766   4.695264
    23  C    4.188156   2.891974   3.470359   2.596455   2.650218
    24  H    5.252466   3.899811   4.374115   3.619525   3.672871
    25  H    3.804557   2.270864   2.916919   2.724971   2.973887
    26  H    4.249868   2.982227   3.977434   2.740685   2.380058
    27  C    5.799773   5.603220   5.190361   3.766523   3.938002
    28  C    6.162354   6.337359   5.797800   4.310452   4.445992
    29  C    7.347869   7.593808   6.874222   5.584144   5.801456
    30  C    8.125764   8.173076   7.380396   6.297941   6.604928
    31  C    7.866883   7.631618   6.923867   5.948426   6.284807
    32  C    6.780020   6.390344   5.868080   4.778836   5.062669
    33  H    5.719076   6.101596   5.665265   4.018316   4.027307
    34  H    7.820919   8.264551   7.506041   6.206596   6.392395
    35  H    9.092148   9.197960   8.320911   7.325343   7.657953
    36  H    8.680719   8.330284   7.592747   6.787668   7.164314
    37  H    6.864294   6.206466   5.804195   4.880541   5.170505
    38  N    6.352714   6.034195   6.398190   4.409665   3.871318
    39  H    6.888155   6.653825   6.787678   4.884404   4.510325
    40  H    6.672091   6.446736   6.957697   4.896905   4.206977
                   11         12         13         14         15
    11  H    0.000000
    12  C    2.835027   0.000000
    13  C    2.716462   1.395209   0.000000
    14  C    3.941604   2.421111   1.382940   0.000000
    15  C    4.956132   2.804277   2.402146   1.388982   0.000000
    16  C    5.021534   2.419534   2.761093   2.393588   1.384542
    17  C    4.120161   1.391005   2.387893   2.765713   2.405764
    18  H    2.161202   2.150403   1.082259   2.127483   3.374709
    19  H    4.363573   3.396474   2.137027   1.082660   2.148087
    20  H    5.929259   3.886857   3.384417   2.149188   1.082582
    21  H    6.028558   3.393938   3.843758   3.378747   2.143880
    22  H    4.678653   2.149896   3.376852   3.846498   3.374785
    23  C    3.422727   2.533748   3.803963   4.928887   5.123827
    24  H    4.358554   2.872928   4.239778   5.238692   5.228544
    25  H    3.636127   2.723113   3.950561   4.912364   4.962546
    26  H    3.610594   3.458755   4.607414   5.830548   6.145764
    27  C    3.526097   2.898267   3.028928   4.106742   4.888634
    28  C    3.768689   3.901691   3.575386   4.538374   5.566777
    29  C    4.970135   4.815498   4.280592   4.909985   5.901669
    30  C    5.800272   4.941372   4.501186   4.878286   5.609875
    31  C    5.652670   4.196025   4.078000   4.473416   4.932106
    32  C    4.637430   3.120957   3.346681   4.081040   4.546894
    33  H    3.372737   4.292868   3.920448   4.987732   6.136239
    34  H    5.479908   5.707763   5.023731   5.582602   6.672665
    35  H    6.782163   5.897003   5.358768   5.535958   6.209833
    36  H    6.559972   4.759485   4.719815   4.892092   5.084243
    37  H    4.950243   2.948487   3.555042   4.238690   4.399543
    38  N    4.434192   4.918123   5.400932   6.687944   7.459183
    39  H    4.762088   4.991878   5.322468   6.510951   7.302701
    40  H    4.911278   5.778980   6.222319   7.536102   8.364299
                   16         17         18         19         20
    16  C    0.000000
    17  C    1.388984   0.000000
    18  H    3.843032   3.374680   0.000000
    19  H    3.378146   3.848317   2.440435   0.000000
    20  H    2.145892   3.388647   4.267060   2.479930   0.000000
    21  H    1.082716   2.140799   4.925698   4.278803   2.476205
    22  H    2.130390   1.081017   4.282411   4.929143   4.267254
    23  C    4.269202   2.893425   4.163297   5.884663   6.174164
    24  H    4.199479   2.858308   4.734968   6.253889   6.237928
    25  H    4.054238   2.804317   4.432777   5.882698   5.956942
    26  H    5.345133   3.969136   4.767448   6.724072   7.207211
    27  C    4.808442   3.931915   2.799663   4.640147   5.837858
    28  C    5.781630   5.063093   2.963860   4.767115   6.424396
    29  C    6.298115   5.825438   3.736974   4.937663   6.596722
    30  C    5.963880   5.668100   4.268150   4.969029   6.195445
    31  C    5.024028   4.686723   4.152976   4.839009   5.577665
    32  C    4.379622   3.714774   3.485683   4.682178   5.393545
    33  H    6.382274   5.586916   3.091934   5.145006   7.019633
    34  H    7.199861   6.779125   4.334919   5.429820   7.302645
    35  H    6.673770   6.536885   5.138468   5.485042   6.649107
    36  H    5.112824   4.962266   4.971453   5.278086   5.592125
    37  H    3.921271   3.182617   3.958584   5.019632   5.260035
    38  N    7.125258   5.933572   4.993708   7.246570   8.484082
    39  H    7.071886   5.997507   4.899043   6.998489   8.276019
    40  H    8.049172   6.833085   5.723745   8.048556   9.395544
                   21         22         23         24         25
    21  H    0.000000
    22  H    2.440900   0.000000
    23  C    4.876060   2.537367   0.000000
    24  H    4.644077   2.212701   1.091452   0.000000
    25  H    4.566356   2.402061   1.089687   1.763328   0.000000
    26  H    5.958802   3.600969   1.084786   1.759652   1.778389
    27  C    5.717868   4.383861   3.816824   3.938216   4.667787
    28  C    6.755714   5.652273   4.993313   5.257629   5.797556
    29  C    7.222693   6.488228   6.207461   6.355565   6.986445
    30  C    6.760471   6.296131   6.485346   6.424361   7.246009
    31  C    5.721703   5.191364   5.639179   5.405366   6.389310
    32  C    5.139671   4.114549   4.272551   4.064446   5.070870
    33  H    7.402421   6.171063   5.144338   5.591987   5.914864
    34  H    8.149287   7.489139   7.111345   7.338835   7.870345
    35  H    7.408713   7.189789   7.539306   7.442704   8.277499
    36  H    5.637183   5.391415   6.209617   5.822088   6.907060
    37  H    4.532687   3.358963   3.812106   3.372126   4.572038
    38  N    7.955100   5.993546   4.256242   4.440871   5.290954
    39  H    7.910006   6.154390   4.774042   4.857921   5.815991
    40  H    8.890679   6.872586   4.934709   5.196956   5.928815
                   26         27         28         29         30
    26  H    0.000000
    27  C    4.188996   0.000000
    28  C    5.246396   1.398631   0.000000
    29  C    6.546691   2.431185   1.386822   0.000000
    30  C    6.970563   2.817338   2.405537   1.388129   0.000000
    31  C    6.224821   2.430262   2.763579   2.394874   1.388001
    32  C    4.840979   1.397785   2.386578   2.763893   2.405482
    33  H    5.232227   2.144344   1.084268   2.140114   3.384178
    34  H    7.385745   3.406405   2.141830   1.083338   2.146399
    35  H    8.046179   3.900122   3.388510   2.149217   1.082791
    36  H    6.870734   3.405336   3.846891   3.379678   2.146177
    37  H    4.477552   2.141886   3.370304   3.847319   3.384007
    38  N    3.879878   2.844767   3.145742   4.248906   4.963278
    39  H    4.586832   2.452012   2.560365   3.455159   4.112894
    40  H    4.382055   3.774740   3.860377   4.916122   5.750314
                   31         32         33         34         35
    31  C    0.000000
    32  C    1.386501   0.000000
    33  H    3.847717   3.371569   0.000000
    34  H    3.379730   3.847193   2.458252   0.000000
    35  H    2.149384   3.388539   4.279051   2.478204   0.000000
    36  H    1.083348   2.141415   4.931038   4.279473   2.478337
    37  H    2.140122   1.083457   4.269103   4.930630   4.279284
    38  N    4.777490   3.818144   3.017927   4.850680   5.935934
    39  H    4.038842   3.292497   2.645678   4.062171   5.034933
    40  H    5.694467   4.800128   3.511702   5.358314   6.674392
                   36         37         38         39         40
    36  H    0.000000
    37  H    2.458799   0.000000
    38  N    5.657658   4.170715   0.000000
    39  H    4.926524   3.817922   1.004483   0.000000
    40  H    6.588733   5.174931   1.005303   1.707333   0.000000
 Stoichiometry    C17H20N2O
 Framework group  C1[X(C17H20N2O)]
 Deg. of freedom   114
 Full point group                 C1      NOp   1
 Largest Abelian subgroup         C1      NOp   1
 Largest concise Abelian subgroup C1      NOp   1
                         Standard orientation:                         
 ---------------------------------------------------------------------
 Center     Atomic      Atomic             Coordinates (Angstroms)
 Number     Number       Type             X           Y           Z
 ---------------------------------------------------------------------
      1          6           0        0.734557    0.989671   -0.322480
      2          6           0        1.450083    2.235164   -0.323520
      3          8           0        0.917459    3.355332   -0.149200
      4          6           0       -0.689363    1.008317   -0.416240
      5          6           0       -2.659077    2.230970    1.441730
      6          1           0       -2.792759    2.699200    2.418560
      7          1           0       -3.060760    2.895629    0.680190
      8          1           0       -3.213494    1.292518    1.420120
      9          7           0       -1.253247    1.964655    1.161470
     10          1           0       -0.700849    2.804017    0.983290
     11          1           0       -0.808645    1.456886    1.915260
     12          6           0       -1.409659   -0.301846   -0.225540
     13          6           0       -1.242537   -1.042905    0.944720
     14          6           0       -1.890842   -2.250617    1.128170
     15          6           0       -2.720101   -2.754820    0.134500
     16          6           0       -2.897573   -2.030851   -1.032260
     17          6           0       -2.255577   -0.811339   -1.205200
     18          1           0       -0.580028   -0.683423    1.721340
     19          1           0       -1.744651   -2.803057    2.047730
     20          1           0       -3.224358   -3.702782    0.272620
     21          1           0       -3.541432   -2.410393   -1.815630
     22          1           0       -2.412399   -0.268819   -2.126980
     23          6           0       -1.341946    1.924575   -1.433160
     24          1           0       -1.149355    1.522625   -2.429460
     25          1           0       -2.421717    1.986441   -1.300170
     26          1           0       -0.909320    2.918186   -1.384870
     27          6           0        1.486701   -0.277896   -0.123190
     28          6           0        2.288822   -0.486623    1.003400
     29          6           0        2.984506   -1.671731    1.190000
     30          6           0        2.888149   -2.692601    0.254350
     31          6           0        2.101418   -2.506084   -0.873840
     32          6           0        1.422524   -1.311836   -1.061620
     33          1           0        2.353149    0.294087    1.753060
     34          1           0        3.592406   -1.804099    2.076880
     35          1           0        3.423012   -3.622470    0.401670
     36          1           0        2.022961   -3.291094   -1.616300
     37          1           0        0.817374   -1.174238   -1.949730
     38          7           0        2.809203    2.206628   -0.536500
     39          1           0        3.300066    1.331540   -0.488960
     40          1           0        3.318940    3.020320   -0.238660
 ---------------------------------------------------------------------
 Rotational constants (GHZ):           0.3947845           0.3692093           0.2328631
 Standard basis: def2TZVP (5D, 7F)
 There are   840 symmetry adapted cartesian basis functions of A   symmetry.
 There are   740 symmetry adapted basis functions of A   symmetry.
   740 basis functions,  1180 primitive gaussians,   840 cartesian basis functions
    72 alpha electrons       72 beta electrons
       nuclear repulsion energy      1578.6682071137 Hartrees.
 NAtoms=   40 NActive=   40 NUniq=   40 SFac= 1.00D+00 NAtFMM=   60 NAOKFM=F Big=F
 Integral buffers will be    131072 words long.
 Raffenetti 2 integral format.
 Two-electron integral symmetry is turned on.
 Nuclear repulsion after empirical dispersion term =     1578.6320829993 Hartrees.
 Force inversion solution in PCM.
 ------------------------------------------------------------------------------
 Polarizable Continuum Model (PCM)
 =================================
 Model                : PCM.
 Atomic radii         : UFF (Universal Force Field).
 Polarization charges : Total charges.
 Charge compensation  : None.
 Solution method      : Matrix inversion.
 Cavity type          : Scaled VdW (van der Waals Surface) (Alpha=1.100).
 Cavity algorithm     : GePol (No added spheres)
                        Default sphere list used, NSphG=   40.
                        Lebedev-Laikov grids with approx.  5.0 points / Ang**2.
                        Smoothing algorithm: York/Karplus (Gamma=1.0000).
                        Polarization charges: spherical gaussians, with
                                              point-specific exponents (IZeta= 3).
                        Self-potential: point-specific (ISelfS= 7).
                        Self-field    : sphere-specific E.n sum rule (ISelfD= 2).
 1st derivatives      : Analytical E(r).r(x)/FMM algorithm (CHGder, D1EAlg=3).
                        Cavity 1st derivative terms included.
 2nd derivatives      : Analytical E(r).r(xy)/FMM algorithm (CHGder, D2EAlg=3).
                        Cavity 2nd derivative terms included.
 Solvent              : Water, Eps=  78.355300 Eps(inf)=   1.777849
 ------------------------------------------------------------------------------
 One-electron integrals computed using PRISM.
   1 Symmetry operations used in ECPInt.
 ECPInt:  NShTT=   45150 NPrTT=  135960 LenC2=   41565 LenP2D=   90706.
 LDataN:  DoStor=T MaxTD1= 6 Len=  172
 NBasis=   740 RedAO= T EigKep=  6.35D-06  NBF=   740
 NBsUse=   740 1.00D-06 EigRej= -1.00D+00 NBFU=   740
 ExpMin= 9.52D-02 ExpMax= 2.70D+04 ExpMxC= 9.22D+02 IAcc=3 IRadAn=         5 AccDes= 0.00D+00
 Harris functional with IExCor= 4639 and IRadAn=       5 diagonalized for initial guess.
 HarFok:  IExCor= 4639 AccDes= 0.00D+00 IRadAn=         5 IDoV= 1 UseB2=F ITyADJ=14
 ICtDFT=  3500011 ScaDFX=  1.000000  1.000000  1.000000  1.000000
 FoFCou: FMM=F IPFlag=           0 FMFlag=      100000 FMFlg1=           0
         NFxFlg=           0 DoJE=T BraDBF=F KetDBF=T FulRan=T
         wScrn=  0.000000 ICntrl=       500 IOpCl=  0 I1Cent=   200000004 NGrid=           0
         NMat0=    1 NMatS0=      1 NMatT0=    0 NMatD0=    1 NMtDS0=    0 NMtDT0=    0
 Petite list used in FoFCou.
 Requested convergence on RMS density matrix=1.00D-08 within 128 cycles.
 Requested convergence on MAX density matrix=1.00D-06.
 Requested convergence on             energy=1.00D-06.
 No special actions if energy rises.
 Inv3:  Mode=1 IEnd=    21886203.
 Iteration    1 A*A^-1 deviation from unit magnitude is 4.66D-15 for   2673.
 Iteration    1 A*A^-1 deviation from orthogonality  is 2.06D-15 for   2677   2614.
 Iteration    1 A^-1*A deviation from unit magnitude is 4.88D-15 for   2678.
 Iteration    1 A^-1*A deviation from orthogonality  is 2.16D-15 for   2694   2671.
 Error on total polarization charges =  0.01611
 SCF Done:  E(RwB97XD) =  -844.595689993     A.U. after   15 cycles
            NFock= 15  Conv=0.61D-08     -V/T= 2.0049
 DoSCS=F DFT=T ScalE2(SS,OS)=  1.000000  1.000000
 Range of M.O.s used for correlation:     1   740
 NBasis=   740 NAE=    72 NBE=    72 NFC=     0 NFV=     0
 NROrb=    740 NOA=    72 NOB=    72 NVA=   668 NVB=   668

 **** Warning!!: The largest alpha MO coefficient is  0.54388592D+02

   1 Symmetry operations used in ECPInt.
 ECPInt:  NShTT=   45150 NPrTT=  135960 LenC2=   41565 LenP2D=   90706.
 LDataN:  DoStor=T MaxTD1= 7 Len=  274
 Number of processors reduced to  12 by ecpmxn.
 Symmetrizing basis deriv contribution to polar:
 IMax=3 JMax=2 DiffMx= 0.00D+00
 G2DrvN: will do    41 centers at a time, making    1 passes.
 Calling FoFCou, ICntrl=  3107 FMM=F I1Cent=   0 AccDes= 0.00D+00.
 NEqPCM:  Using equilibrium solvation (IEInf=0, Eps=  78.3553, EpsInf=   1.7778)
 G2PCM: DoFxE=T DoFxN=T DoGrad=T DoDP/DQ/DG/TGxP=FFFF NFrqRd=   0 IEInf=0 SqF1=F DoCFld=F IF1Alg=4.
 End of G2Drv F.D. properties file   721 does not exist.
 End of G2Drv F.D. properties file   722 does not exist.
 End of G2Drv F.D. properties file   788 does not exist.
          IDoAtm=1111111111111111111111111111111111111111
 NEqPCM:  Using equilibrium solvation (IEInf=0, Eps=  78.3553, EpsInf=   1.7778)
          Differentiating once with respect to nuclear coordinates.
 CalDSu exits because no D1Ps are significant.
          There are   123 degrees of freedom in the 1st order CPHF.  IDoFFX=6 NUNeed=     0.
    117 vectors produced by pass  0 Test12= 4.81D-14 1.00D-09 XBig12= 1.05D-01 1.24D-01.
 AX will form   117 AO Fock derivatives at one time.
    117 vectors produced by pass  1 Test12= 4.81D-14 1.00D-09 XBig12= 2.12D-02 3.34D-02.
    117 vectors produced by pass  2 Test12= 4.81D-14 1.00D-09 XBig12= 6.10D-04 3.14D-03.
    117 vectors produced by pass  3 Test12= 4.81D-14 1.00D-09 XBig12= 7.96D-06 3.40D-04.
    117 vectors produced by pass  4 Test12= 4.81D-14 1.00D-09 XBig12= 7.38D-08 2.28D-05.
    117 vectors produced by pass  5 Test12= 4.81D-14 1.00D-09 XBig12= 6.25D-10 2.24D-06.
    117 vectors produced by pass  6 Test12= 4.81D-14 1.00D-09 XBig12= 4.67D-12 1.79D-07.
     57 vectors produced by pass  7 Test12= 4.81D-14 1.00D-09 XBig12= 3.80D-14 1.82D-08.
     20 vectors produced by pass  8 Test12= 4.81D-14 1.00D-09 XBig12= 1.30D-14 7.95D-09.
      5 vectors produced by pass  9 Test12= 4.81D-14 1.00D-09 XBig12= 5.96D-15 6.28D-09.
      5 vectors produced by pass 10 Test12= 4.81D-14 1.00D-09 XBig12= 2.14D-15 4.17D-09.
      5 vectors produced by pass 11 Test12= 4.81D-14 1.00D-09 XBig12= 3.06D-15 4.60D-09.
      4 vectors produced by pass 12 Test12= 4.81D-14 1.00D-09 XBig12= 2.28D-15 3.92D-09.
      4 vectors produced by pass 13 Test12= 4.81D-14 1.00D-09 XBig12= 5.30D-15 4.74D-09.
      3 vectors produced by pass 14 Test12= 4.81D-14 1.00D-09 XBig12= 4.31D-15 5.89D-09.
      3 vectors produced by pass 15 Test12= 4.81D-14 1.00D-09 XBig12= 1.04D-15 2.72D-09.
      2 vectors produced by pass 16 Test12= 4.81D-14 1.00D-09 XBig12= 9.77D-16 2.29D-09.
 InvSVY:  IOpt=1 It=  1 EMax= 7.22D-16
 Solved reduced A of dimension   927 with   123 vectors.
 End of Minotr F.D. properties file   721 does not exist.
 End of Minotr F.D. properties file   722 does not exist.
 End of Minotr F.D. properties file   788 does not exist.

 **********************************************************************

            Population analysis using the SCF density.

 **********************************************************************

 Orbital symmetries:
       Occupied  (A) (A) (A) (A) (A) (A) (A) (A) (A) (A) (A) (A)
                 (A) (A) (A) (A) (A) (A) (A) (A) (A) (A) (A) (A)
                 (A) (A) (A) (A) (A) (A) (A) (A) (A) (A) (A) (A)
                 (A) (A) (A) (A) (A) (A) (A) (A) (A) (A) (A) (A)
                 (A) (A) (A) (A) (A) (A) (A) (A) (A) (A) (A) (A)
                 (A) (A) (A) (A) (A) (A) (A) (A) (A) (A) (A) (A)
       Virtual   (A) (A) (A) (A) (A) (A) (A) (A) (A) (A) (A) (A)
                 (A) (A) (A) (A) (A) (A) (A) (A) (A) (A) (A) (A)
                 (A) (A) (A) (A) (A) (A) (A) (A) (A) (A) (A) (A)
                 (A) (A) (A) (A) (A) (A) (A) (A) (A) (A) (A) (A)
                 (A) (A) (A) (A) (A) (A) (A) (A) (A) (A) (A) (A)
                 (A) (A) (A) (A) (A) (A) (A) (A) (A) (A) (A) (A)
                 (A) (A) (A) (A) (A) (A) (A) (A) (A) (A) (A) (A)
                 (A) (A) (A) (A) (A) (A) (A) (A) (A) (A) (A) (A)
                 (A) (A) (A) (A) (A) (A) (A) (A) (A) (A) (A) (A)
                 (A) (A) (A) (A) (A) (A) (A) (A) (A) (A) (A) (A)
                 (A) (A) (A) (A) (A) (A) (A) (A) (A) (A) (A) (A)
                 (A) (A) (A) (A) (A) (A) (A) (A) (A) (A) (A) (A)
                 (A) (A) (A) (A) (A) (A) (A) (A) (A) (A) (A) (A)
                 (A) (A) (A) (A) (A) (A) (A) (A) (A) (A) (A) (A)
                 (A) (A) (A) (A) (A) (A) (A) (A) (A) (A) (A) (A)
                 (A) (A) (A) (A) (A) (A) (A) (A) (A) (A) (A) (A)
                 (A) (A) (A) (A) (A) (A) (A) (A) (A) (A) (A) (A)
                 (A) (A) (A) (A) (A) (A) (A) (A) (A) (A) (A) (A)
                 (A) (A) (A) (A) (A) (A) (A) (A) (A) (A) (A) (A)
                 (A) (A) (A) (A) (A) (A) (A) (A) (A) (A) (A) (A)
                 (A) (A) (A) (A) (A) (A) (A) (A) (A) (A) (A) (A)
                 (A) (A) (A) (A) (A) (A) (A) (A) (A) (A) (A) (A)
                 (A) (A) (A) (A) (A) (A) (A) (A) (A) (A) (A) (A)
                 (A) (A) (A) (A) (A) (A) (A) (A) (A) (A) (A) (A)
                 (A) (A) (A) (A) (A) (A) (A) (A) (A) (A) (A) (A)
                 (A) (A) (A) (A) (A) (A) (A) (A) (A) (A) (A) (A)
                 (A) (A) (A) (A) (A) (A) (A) (A) (A) (A) (A) (A)
                 (A) (A) (A) (A) (A) (A) (A) (A) (A) (A) (A) (A)
                 (A) (A) (A) (A) (A) (A) (A) (A) (A) (A) (A) (A)
                 (A) (A) (A) (A) (A) (A) (A) (A) (A) (A) (A) (A)
                 (A) (A) (A) (A) (A) (A) (A) (A) (A) (A) (A) (A)
                 (A) (A) (A) (A) (A) (A) (A) (A) (A) (A) (A) (A)
                 (A) (A) (A) (A) (A) (A) (A) (A) (A) (A) (A) (A)
                 (A) (A) (A) (A) (A) (A) (A) (A) (A) (A) (A) (A)
                 (A) (A) (A) (A) (A) (A) (A) (A) (A) (A) (A) (A)
                 (A) (A) (A) (A) (A) (A) (A) (A) (A) (A) (A) (A)
                 (A) (A) (A) (A) (A) (A) (A) (A) (A) (A) (A) (A)
                 (A) (A) (A) (A) (A) (A) (A) (A) (A) (A) (A) (A)
                 (A) (A) (A) (A) (A) (A) (A) (A) (A) (A) (A) (A)
                 (A) (A) (A) (A) (A) (A) (A) (A) (A) (A) (A) (A)
                 (A) (A) (A) (A) (A) (A) (A) (A) (A) (A) (A) (A)
                 (A) (A) (A) (A) (A) (A) (A) (A) (A) (A) (A) (A)
                 (A) (A) (A) (A) (A) (A) (A) (A) (A) (A) (A) (A)
                 (A) (A) (A) (A) (A) (A) (A) (A) (A) (A) (A) (A)
                 (A) (A) (A) (A) (A) (A) (A) (A) (A) (A) (A) (A)
                 (A) (A) (A) (A) (A) (A) (A) (A) (A) (A) (A) (A)
                 (A) (A) (A) (A) (A) (A) (A) (A) (A) (A) (A) (A)
                 (A) (A) (A) (A) (A) (A) (A) (A) (A) (A) (A) (A)
                 (A) (A) (A) (A) (A) (A) (A) (A) (A) (A) (A) (A)
                 (A) (A) (A) (A) (A) (A) (A) (A) (A) (A) (A) (A)
                 (A) (A) (A) (A) (A) (A) (A) (A) (A) (A) (A) (A)
                 (A) (A) (A) (A) (A) (A) (A) (A) (A) (A) (A) (A)
                 (A) (A) (A) (A) (A) (A) (A) (A) (A) (A) (A) (A)
                 (A) (A) (A) (A) (A) (A) (A) (A) (A) (A) (A) (A)
                 (A) (A) (A) (A) (A) (A) (A) (A) (A) (A) (A) (A)
                 (A) (A) (A) (A) (A) (A) (A) (A)
 The electronic state is 1-A.
 Alpha  occ. eigenvalues --  -19.19255 -14.46928 -14.42805 -10.36774 -10.35137
 Alpha  occ. eigenvalues --  -10.31314 -10.30283 -10.29334 -10.29181 -10.29168
 Alpha  occ. eigenvalues --  -10.29128 -10.29084 -10.29049 -10.28515 -10.28452
 Alpha  occ. eigenvalues --  -10.28332 -10.28082 -10.27973 -10.27044 -10.24986
 Alpha  occ. eigenvalues --   -1.11393  -1.02829  -0.98405  -0.97272  -0.95785
 Alpha  occ. eigenvalues --   -0.91253  -0.86153  -0.85270  -0.84377  -0.83502
 Alpha  occ. eigenvalues --   -0.79289  -0.78000  -0.73170  -0.70437  -0.69682
 Alpha  occ. eigenvalues --   -0.68957  -0.67509  -0.64229  -0.62232  -0.61062
 Alpha  occ. eigenvalues --   -0.60846  -0.58706  -0.56469  -0.55885  -0.55434
 Alpha  occ. eigenvalues --   -0.54667  -0.53889  -0.53216  -0.52283  -0.51867
 Alpha  occ. eigenvalues --   -0.50963  -0.50216  -0.49565  -0.48394  -0.47971
 Alpha  occ. eigenvalues --   -0.47507  -0.47084  -0.46540  -0.46002  -0.45405
 Alpha  occ. eigenvalues --   -0.43240  -0.42667  -0.42014  -0.41628  -0.40369
 Alpha  occ. eigenvalues --   -0.35130  -0.34546  -0.33880  -0.33267  -0.32757
 Alpha  occ. eigenvalues --   -0.31955  -0.25254
 Alpha virt. eigenvalues --    0.02667   0.04647   0.05746   0.06083   0.08657
 Alpha virt. eigenvalues --    0.10338   0.12457   0.13196   0.13575   0.14064
 Alpha virt. eigenvalues --    0.14766   0.15922   0.16364   0.16734   0.17618
 Alpha virt. eigenvalues --    0.17713   0.18155   0.18477   0.18714   0.18976
 Alpha virt. eigenvalues --    0.19888   0.20202   0.20446   0.21142   0.21429
 Alpha virt. eigenvalues --    0.22017   0.23084   0.23183   0.23882   0.24564
 Alpha virt. eigenvalues --    0.25684   0.26113   0.26319   0.26987   0.28213
 Alpha virt. eigenvalues --    0.28971   0.29026   0.29428   0.29817   0.30104
 Alpha virt. eigenvalues --    0.30424   0.31473   0.32223   0.32377   0.32545
 Alpha virt. eigenvalues --    0.32960   0.33527   0.34088   0.34629   0.34805
 Alpha virt. eigenvalues --    0.35168   0.35766   0.36251   0.36529   0.37494
 Alpha virt. eigenvalues --    0.38001   0.38512   0.39247   0.39570   0.40666
 Alpha virt. eigenvalues --    0.40705   0.41136   0.41503   0.41817   0.42815
 Alpha virt. eigenvalues --    0.43721   0.43955   0.43972   0.44943   0.45191
 Alpha virt. eigenvalues --    0.45519   0.46293   0.46596   0.46960   0.47159
 Alpha virt. eigenvalues --    0.47800   0.48211   0.48679   0.49096   0.49421
 Alpha virt. eigenvalues --    0.49606   0.50068   0.50489   0.50884   0.51193
 Alpha virt. eigenvalues --    0.51576   0.51959   0.52325   0.52688   0.53145
 Alpha virt. eigenvalues --    0.53779   0.54103   0.54308   0.54513   0.55645
 Alpha virt. eigenvalues --    0.56066   0.56458   0.56635   0.57465   0.57551
 Alpha virt. eigenvalues --    0.57942   0.58288   0.58853   0.59277   0.59431
 Alpha virt. eigenvalues --    0.60459   0.61236   0.61412   0.62007   0.62490
 Alpha virt. eigenvalues --    0.62770   0.63495   0.64447   0.64674   0.65410
 Alpha virt. eigenvalues --    0.66259   0.66956   0.68801   0.69140   0.69622
 Alpha virt. eigenvalues --    0.70141   0.72003   0.72066   0.72996   0.73124
 Alpha virt. eigenvalues --    0.73792   0.74940   0.76248   0.76674   0.77146
 Alpha virt. eigenvalues --    0.77554   0.77760   0.78980   0.79142   0.79421
 Alpha virt. eigenvalues --    0.79684   0.80305   0.80915   0.82193   0.82999
 Alpha virt. eigenvalues --    0.83959   0.84803   0.85218   0.85498   0.86598
 Alpha virt. eigenvalues --    0.87184   0.87599   0.88966   0.89381   0.89848
 Alpha virt. eigenvalues --    0.91745   0.91839   0.92609   0.93250   0.93811
 Alpha virt. eigenvalues --    0.94682   0.95188   0.96220   0.97419   0.98023
 Alpha virt. eigenvalues --    0.99297   0.99355   1.01028   1.02083   1.02216
 Alpha virt. eigenvalues --    1.02801   1.03464   1.03753   1.04716   1.05344
 Alpha virt. eigenvalues --    1.06203   1.07305   1.08724   1.08968   1.09664
 Alpha virt. eigenvalues --    1.10922   1.11660   1.12612   1.14729   1.15052
 Alpha virt. eigenvalues --    1.15792   1.16919   1.17462   1.18820   1.19111
 Alpha virt. eigenvalues --    1.20702   1.21026   1.21869   1.22701   1.23384
 Alpha virt. eigenvalues --    1.24137   1.24927   1.25782   1.26951   1.28137
 Alpha virt. eigenvalues --    1.28872   1.30090   1.30881   1.31564   1.32102
 Alpha virt. eigenvalues --    1.32562   1.33284   1.33846   1.34329   1.35112
 Alpha virt. eigenvalues --    1.35571   1.36077   1.36784   1.38524   1.39031
 Alpha virt. eigenvalues --    1.39493   1.39814   1.40600   1.41106   1.42039
 Alpha virt. eigenvalues --    1.42479   1.43372   1.45605   1.47099   1.47300
 Alpha virt. eigenvalues --    1.47361   1.49937   1.51799   1.52459   1.52761
 Alpha virt. eigenvalues --    1.53646   1.53788   1.54864   1.55578   1.55912
 Alpha virt. eigenvalues --    1.56797   1.57214   1.58175   1.59236   1.59381
 Alpha virt. eigenvalues --    1.60029   1.61286   1.62194   1.62793   1.63652
 Alpha virt. eigenvalues --    1.64252   1.64545   1.65033   1.65670   1.65828
 Alpha virt. eigenvalues --    1.66460   1.67544   1.67927   1.69986   1.70874
 Alpha virt. eigenvalues --    1.71380   1.71960   1.72331   1.73017   1.73973
 Alpha virt. eigenvalues --    1.74588   1.75130   1.75808   1.76099   1.77457
 Alpha virt. eigenvalues --    1.77870   1.79128   1.79717   1.80179   1.80614
 Alpha virt. eigenvalues --    1.80727   1.81054   1.81312   1.82300   1.83051
 Alpha virt. eigenvalues --    1.83148   1.84222   1.84769   1.85931   1.86825
 Alpha virt. eigenvalues --    1.88441   1.89643   1.90868   1.93415   1.93505
 Alpha virt. eigenvalues --    1.94662   1.96038   1.96210   1.97302   1.97663
 Alpha virt. eigenvalues --    1.99091   2.00242   2.01309   2.01515   2.02034
 Alpha virt. eigenvalues --    2.03126   2.04754   2.05979   2.06496   2.07061
 Alpha virt. eigenvalues --    2.08721   2.09048   2.10790   2.11659   2.11908
 Alpha virt. eigenvalues --    2.12225   2.13223   2.13901   2.14819   2.16361
 Alpha virt. eigenvalues --    2.17520   2.18576   2.18907   2.19942   2.21068
 Alpha virt. eigenvalues --    2.21534   2.22335   2.23781   2.24857   2.26138
 Alpha virt. eigenvalues --    2.26675   2.28026   2.28449   2.29656   2.30942
 Alpha virt. eigenvalues --    2.31676   2.32457   2.32520   2.33742   2.34197
 Alpha virt. eigenvalues --    2.35980   2.36657   2.38004   2.38824   2.39587
 Alpha virt. eigenvalues --    2.41198   2.43540   2.43994   2.44936   2.46014
 Alpha virt. eigenvalues --    2.47284   2.47599   2.48316   2.49463   2.50576
 Alpha virt. eigenvalues --    2.50962   2.52032   2.53915   2.55095   2.56084
 Alpha virt. eigenvalues --    2.56879   2.57343   2.59048   2.59736   2.60632
 Alpha virt. eigenvalues --    2.61646   2.62829   2.63056   2.63615   2.64329
 Alpha virt. eigenvalues --    2.64889   2.66583   2.67584   2.68051   2.68480
 Alpha virt. eigenvalues --    2.69441   2.70105   2.70992   2.71898   2.72184
 Alpha virt. eigenvalues --    2.72506   2.73155   2.74329   2.74890   2.75941
 Alpha virt. eigenvalues --    2.76283   2.76732   2.77083   2.77707   2.78105
 Alpha virt. eigenvalues --    2.78565   2.79106   2.79696   2.80407   2.80612
 Alpha virt. eigenvalues --    2.80756   2.82293   2.82696   2.83652   2.83752
 Alpha virt. eigenvalues --    2.84742   2.85489   2.86836   2.87087   2.87658
 Alpha virt. eigenvalues --    2.88831   2.89560   2.89667   2.89900   2.90498
 Alpha virt. eigenvalues --    2.91377   2.92099   2.92293   2.92825   2.94549
 Alpha virt. eigenvalues --    2.95097   2.95207   2.95504   2.96500   2.97202
 Alpha virt. eigenvalues --    2.98171   2.98705   2.99399   3.00356   3.01233
 Alpha virt. eigenvalues --    3.01998   3.02466   3.04228   3.04735   3.06202
 Alpha virt. eigenvalues --    3.07013   3.09066   3.10327   3.10650   3.11551
 Alpha virt. eigenvalues --    3.13022   3.13120   3.14541   3.15357   3.16228
 Alpha virt. eigenvalues --    3.17194   3.18176   3.18800   3.20208   3.20937
 Alpha virt. eigenvalues --    3.21226   3.21615   3.22497   3.22832   3.23430
 Alpha virt. eigenvalues --    3.24410   3.24898   3.25005   3.25960   3.26384
 Alpha virt. eigenvalues --    3.26972   3.28426   3.28986   3.29881   3.30633
 Alpha virt. eigenvalues --    3.31349   3.31594   3.32137   3.32864   3.33276
 Alpha virt. eigenvalues --    3.33893   3.34530   3.34964   3.35714   3.36513
 Alpha virt. eigenvalues --    3.37137   3.38067   3.38633   3.39711   3.39792
 Alpha virt. eigenvalues --    3.40804   3.41287   3.41468   3.42326   3.43531
 Alpha virt. eigenvalues --    3.43668   3.44180   3.45337   3.45837   3.46896
 Alpha virt. eigenvalues --    3.46968   3.48358   3.48927   3.50043   3.50309
 Alpha virt. eigenvalues --    3.51265   3.51585   3.52413   3.52727   3.53950
 Alpha virt. eigenvalues --    3.54515   3.55391   3.56276   3.56808   3.57129
 Alpha virt. eigenvalues --    3.58350   3.59096   3.60060   3.60186   3.60638
 Alpha virt. eigenvalues --    3.61546   3.62463   3.63185   3.63454   3.64178
 Alpha virt. eigenvalues --    3.64966   3.65710   3.66931   3.67185   3.68065
 Alpha virt. eigenvalues --    3.69640   3.70715   3.71538   3.72264   3.74482
 Alpha virt. eigenvalues --    3.75111   3.76488   3.77722   3.78903   3.79566
 Alpha virt. eigenvalues --    3.80318   3.81219   3.81984   3.83807   3.85158
 Alpha virt. eigenvalues --    3.86138   3.87168   3.88481   3.89585   3.91226
 Alpha virt. eigenvalues --    3.91952   3.92753   3.94382   3.96904   3.98238
 Alpha virt. eigenvalues --    4.00472   4.01170   4.03321   4.03777   4.05252
 Alpha virt. eigenvalues --    4.06843   4.07652   4.08695   4.11332   4.12470
 Alpha virt. eigenvalues --    4.12865   4.14566   4.15715   4.16842   4.17706
 Alpha virt. eigenvalues --    4.18383   4.20514   4.22215   4.22878   4.24569
 Alpha virt. eigenvalues --    4.26086   4.26960   4.28120   4.29444   4.30262
 Alpha virt. eigenvalues --    4.31207   4.31779   4.32975   4.33333   4.34636
 Alpha virt. eigenvalues --    4.34895   4.35529   4.36705   4.37507   4.38271
 Alpha virt. eigenvalues --    4.39687   4.39785   4.41214   4.41961   4.44259
 Alpha virt. eigenvalues --    4.44768   4.46307   4.46602   4.48986   4.50023
 Alpha virt. eigenvalues --    4.51000   4.52861   4.55204   4.56948   4.59397
 Alpha virt. eigenvalues --    4.60577   4.63799   4.65722   4.67263   4.69574
 Alpha virt. eigenvalues --    4.71726   4.73216   4.73802   4.75000   4.77507
 Alpha virt. eigenvalues --    4.78577   4.81234   4.82061   4.83833   4.85241
 Alpha virt. eigenvalues --    4.86344   4.87435   4.88258   4.89695   4.95631
 Alpha virt. eigenvalues --    4.97725   4.99008   4.99136   5.00752   5.01458
 Alpha virt. eigenvalues --    5.04265   5.05119   5.08766   5.08892   5.12979
 Alpha virt. eigenvalues --    5.13136   5.16357   5.19247   5.21852   5.23255
 Alpha virt. eigenvalues --    5.25099   5.25715   5.26655   5.27749   5.29186
 Alpha virt. eigenvalues --    5.31583   5.33921   5.34890   5.35883   5.38154
 Alpha virt. eigenvalues --    5.38760   5.41789   5.43264   5.45066   5.46527
 Alpha virt. eigenvalues --    5.49027   5.53291   5.55213   5.56038   5.61285
 Alpha virt. eigenvalues --    5.62124   5.63763   5.66697   5.71494   5.78826
 Alpha virt. eigenvalues --    5.81071   5.83072   5.88824   5.96244   6.08496
 Alpha virt. eigenvalues --    6.21147   6.43009   6.59527   6.74513   6.82378
 Alpha virt. eigenvalues --    6.97530   7.18440   7.25662  22.26472  22.36214
 Alpha virt. eigenvalues --   22.51236  22.62224  22.71210  22.74268  22.75571
 Alpha virt. eigenvalues --   22.75954  22.92215  22.94325  22.96593  22.99433
 Alpha virt. eigenvalues --   23.06016  23.14248  23.33543  23.42235  23.58901
 Alpha virt. eigenvalues --   32.19641  32.32312  44.16697
          Condensed to atoms (all electrons):
               1          2          3          4          5          6
     1  C    6.755453   0.050059  -0.261096   0.121306   0.006014  -0.000995
     2  C    0.050059   4.714588   0.648880  -0.088396   0.000663   0.000062
     3  O   -0.261096   0.648880   8.234791   0.066545   0.000103   0.000090
     4  C    0.121306  -0.088396   0.066545   5.862746   0.006373   0.001702
     5  C    0.006014   0.000663   0.000103   0.006373   4.871929   0.404362
     6  H   -0.000995   0.000062   0.000090   0.001702   0.404362   0.517282
     7  H   -0.000393   0.000395   0.000364  -0.001078   0.419577  -0.019406
     8  H    0.002369  -0.000277  -0.000116  -0.011841   0.421793  -0.023523
     9  N   -0.039063  -0.009473  -0.030636  -0.022652   0.214825  -0.020160
    10  H   -0.010453  -0.000589   0.044723  -0.039282  -0.020965  -0.002850
    11  H    0.004206   0.002005  -0.000366   0.004860  -0.020243  -0.007655
    12  C   -0.015442   0.012170   0.003959  -0.044659  -0.000934  -0.000327
    13  C   -0.025564   0.005223   0.000958  -0.056779  -0.006156   0.000432
    14  C    0.003318   0.000011   0.000001  -0.008867  -0.002101   0.000110
    15  C   -0.000428  -0.000007   0.000000  -0.000459   0.000447  -0.000016
    16  C    0.003382   0.000113   0.000000  -0.005522  -0.000522   0.000021
    17  C   -0.013417  -0.003510  -0.000403  -0.063655   0.005424  -0.000185
    18  H   -0.000770  -0.000066   0.000042   0.019852   0.001016   0.000002
    19  H   -0.000007  -0.000001  -0.000000  -0.000216  -0.000022   0.000001
    20  H   -0.000001   0.000000   0.000000   0.000047   0.000003  -0.000000
    21  H    0.000035   0.000000   0.000000  -0.000344  -0.000004   0.000000
    22  H   -0.001723  -0.000143  -0.000007  -0.006572   0.000063  -0.000004
    23  C   -0.009957  -0.013593  -0.054005   0.197037  -0.001382   0.000678
    24  H   -0.006874  -0.001769   0.000914  -0.033495  -0.000359   0.000024
    25  H    0.014414   0.002038   0.000518  -0.066389  -0.002453   0.000530
    26  H   -0.039231   0.000694   0.025536  -0.010474  -0.000039  -0.000203
    27  C    0.125097  -0.039882   0.005021  -0.099811   0.000064  -0.000037
    28  C   -0.140957  -0.013114  -0.004192   0.007686  -0.000199   0.000017
    29  C    0.012156   0.002287  -0.000009   0.000229   0.000005  -0.000000
    30  C   -0.005403  -0.000939  -0.000011   0.000364   0.000000  -0.000000
    31  C    0.004291   0.001055   0.000036   0.000144   0.000003  -0.000000
    32  C   -0.123634  -0.013471  -0.000405  -0.007818  -0.000034   0.000003
    33  H   -0.004720  -0.001849  -0.000389  -0.000462  -0.000001  -0.000003
    34  H   -0.000397   0.000044   0.000002  -0.000000  -0.000000   0.000000
    35  H    0.000071  -0.000004   0.000000   0.000001  -0.000000   0.000000
    36  H   -0.000691  -0.000013  -0.000000   0.000028   0.000000  -0.000000
    37  H    0.006014  -0.000610  -0.000072   0.001476  -0.000013   0.000000
    38  N   -0.200473   0.483649  -0.096102   0.016992  -0.000027   0.000003
    39  H   -0.010573  -0.027100   0.003967  -0.000418   0.000001  -0.000000
    40  H    0.022651  -0.033435   0.005776  -0.001127  -0.000008   0.000001
               7          8          9         10         11         12
     1  C   -0.000393   0.002369  -0.039063  -0.010453   0.004206  -0.015442
     2  C    0.000395  -0.000277  -0.009473  -0.000589   0.002005   0.012170
     3  O    0.000364  -0.000116  -0.030636   0.044723  -0.000366   0.003959
     4  C   -0.001078  -0.011841  -0.022652  -0.039282   0.004860  -0.044659
     5  C    0.419577   0.421793   0.214825  -0.020965  -0.020243  -0.000934
     6  H   -0.019406  -0.023523  -0.020160  -0.002850  -0.007655  -0.000327
     7  H    0.510903  -0.025269  -0.034441  -0.006371   0.005941  -0.006763
     8  H   -0.025269   0.519659  -0.046746   0.005837  -0.003455   0.012003
     9  N   -0.034441  -0.046746   6.614674   0.355358   0.347499  -0.017264
    10  H   -0.006371   0.005837   0.355358   0.416024  -0.021655   0.018602
    11  H    0.005941  -0.003455   0.347499  -0.021655   0.439402  -0.022466
    12  C   -0.006763   0.012003  -0.017264   0.018602  -0.022466   5.757998
    13  C    0.000706  -0.000079   0.014500  -0.000587   0.004807   0.204797
    14  C    0.000076  -0.001793   0.007958  -0.000140  -0.000004   0.031527
    15  C   -0.000014   0.000562  -0.000757  -0.000005   0.000103  -0.110754
    16  C   -0.000042  -0.000469   0.001677   0.000037  -0.000201   0.039019
    17  C   -0.000031   0.003595  -0.005769  -0.000668   0.001298   0.286439
    18  H   -0.000123   0.000873  -0.007307   0.000419  -0.000401  -0.095211
    19  H    0.000001  -0.000029   0.000045  -0.000001  -0.000010   0.015112
    20  H   -0.000000   0.000003  -0.000002   0.000000   0.000000  -0.004374
    21  H   -0.000001  -0.000003   0.000009   0.000000  -0.000001   0.015948
    22  H    0.000034   0.000088   0.000068  -0.000033   0.000016  -0.073268
    23  C    0.004068  -0.004773  -0.007243  -0.012809   0.004742  -0.113487
    24  H    0.000091  -0.000148   0.006514   0.000031  -0.000205  -0.005604
    25  H   -0.002710  -0.000033  -0.002582   0.000552  -0.000141  -0.005111
    26  H   -0.000477   0.000299  -0.011631   0.001193   0.000185   0.018501
    27  C    0.000072   0.000111  -0.005793   0.001241   0.002817  -0.043624
    28  C    0.000004  -0.000010   0.002218  -0.000897   0.000126  -0.002530
    29  C    0.000000  -0.000001  -0.000173  -0.000003   0.000151  -0.002831
    30  C   -0.000000   0.000000   0.000018  -0.000006  -0.000000   0.000966
    31  C   -0.000000  -0.000000  -0.000019   0.000010  -0.000005  -0.001625
    32  C   -0.000002  -0.000004   0.001632  -0.000025  -0.000011   0.023786
    33  H   -0.000000   0.000007   0.000020   0.000006   0.000256   0.000782
    34  H    0.000000  -0.000000   0.000002   0.000001  -0.000002  -0.000002
    35  H    0.000000  -0.000000   0.000000  -0.000000  -0.000000   0.000009
    36  H    0.000000   0.000000  -0.000002  -0.000000   0.000000  -0.000026
    37  H    0.000000  -0.000002   0.000201  -0.000000  -0.000016   0.003578
    38  N    0.000005  -0.000003  -0.000057   0.000752  -0.000111  -0.001055
    39  H   -0.000000   0.000000   0.000032  -0.000120   0.000003  -0.000288
    40  H   -0.000000  -0.000000   0.000129  -0.000100  -0.000019   0.000035
              13         14         15         16         17         18
     1  C   -0.025564   0.003318  -0.000428   0.003382  -0.013417  -0.000770
     2  C    0.005223   0.000011  -0.000007   0.000113  -0.003510  -0.000066
     3  O    0.000958   0.000001   0.000000   0.000000  -0.000403   0.000042
     4  C   -0.056779  -0.008867  -0.000459  -0.005522  -0.063655   0.019852
     5  C   -0.006156  -0.002101   0.000447  -0.000522   0.005424   0.001016
     6  H    0.000432   0.000110  -0.000016   0.000021  -0.000185   0.000002
     7  H    0.000706   0.000076  -0.000014  -0.000042  -0.000031  -0.000123
     8  H   -0.000079  -0.001793   0.000562  -0.000469   0.003595   0.000873
     9  N    0.014500   0.007958  -0.000757   0.001677  -0.005769  -0.007307
    10  H   -0.000587  -0.000140  -0.000005   0.000037  -0.000668   0.000419
    11  H    0.004807  -0.000004   0.000103  -0.000201   0.001298  -0.000401
    12  C    0.204797   0.031527  -0.110754   0.039019   0.286439  -0.095211
    13  C    5.334304   0.391958   0.039646  -0.087035   0.030091   0.457003
    14  C    0.391958   5.018747   0.391025   0.030562  -0.077379  -0.022214
    15  C    0.039646   0.391025   5.013492   0.402362   0.036910   0.008495
    16  C   -0.087035   0.030562   0.402362   5.000194   0.404942  -0.002570
    17  C    0.030091  -0.077379   0.036910   0.404942   5.217783   0.005626
    18  H    0.457003  -0.022214   0.008495  -0.002570   0.005626   0.484754
    19  H   -0.061253   0.459460  -0.058802   0.011789  -0.004380  -0.006551
    20  H    0.013969  -0.061143   0.457912  -0.060526   0.012869  -0.000068
    21  H   -0.004840   0.012328  -0.059847   0.460058  -0.062316   0.000019
    22  H    0.011002  -0.003691   0.010226  -0.037238   0.455650   0.000009
    23  C    0.010248  -0.001152   0.000811  -0.002286   0.002751   0.000333
    24  H   -0.000174   0.000141  -0.000094   0.001157  -0.000524  -0.000012
    25  H    0.001378  -0.000038  -0.000056  -0.000269  -0.009235  -0.000034
    26  H   -0.000705  -0.000018   0.000003  -0.000061  -0.000157   0.000003
    27  C    0.007682  -0.002908   0.000797  -0.002588   0.011264  -0.005434
    28  C    0.001448   0.003761  -0.000062   0.000017  -0.000706  -0.004829
    29  C   -0.000068  -0.000392  -0.000015  -0.000005   0.000070   0.002245
    30  C    0.001273   0.000284  -0.000015  -0.000056   0.000004  -0.000173
    31  C    0.001237  -0.000450   0.000202  -0.000052   0.000009   0.000179
    32  C   -0.010985   0.002843   0.000698   0.000186  -0.001748  -0.003172
    33  H   -0.000631  -0.000021   0.000003  -0.000002   0.000005   0.000044
    34  H   -0.000050  -0.000009  -0.000000   0.000000  -0.000001   0.000019
    35  H   -0.000014   0.000007  -0.000004   0.000001   0.000000  -0.000009
    36  H   -0.000044  -0.000141   0.000011   0.000020   0.000141   0.000019
    37  H   -0.002580   0.000543  -0.000132   0.000670  -0.003358  -0.000185
    38  N    0.000466   0.000013  -0.000001   0.000000  -0.000085  -0.000103
    39  H    0.000003  -0.000002   0.000000  -0.000001   0.000019   0.000004
    40  H   -0.000004   0.000001  -0.000000   0.000000  -0.000001  -0.000005
              19         20         21         22         23         24
     1  C   -0.000007  -0.000001   0.000035  -0.001723  -0.009957  -0.006874
     2  C   -0.000001   0.000000   0.000000  -0.000143  -0.013593  -0.001769
     3  O   -0.000000   0.000000   0.000000  -0.000007  -0.054005   0.000914
     4  C   -0.000216   0.000047  -0.000344  -0.006572   0.197037  -0.033495
     5  C   -0.000022   0.000003  -0.000004   0.000063  -0.001382  -0.000359
     6  H    0.000001  -0.000000   0.000000  -0.000004   0.000678   0.000024
     7  H    0.000001  -0.000000  -0.000001   0.000034   0.004068   0.000091
     8  H   -0.000029   0.000003  -0.000003   0.000088  -0.004773  -0.000148
     9  N    0.000045  -0.000002   0.000009   0.000068  -0.007243   0.006514
    10  H   -0.000001   0.000000   0.000000  -0.000033  -0.012809   0.000031
    11  H   -0.000010   0.000000  -0.000001   0.000016   0.004742  -0.000205
    12  C    0.015112  -0.004374   0.015948  -0.073268  -0.113487  -0.005604
    13  C   -0.061253   0.013969  -0.004840   0.011002   0.010248  -0.000174
    14  C    0.459460  -0.061143   0.012328  -0.003691  -0.001152   0.000141
    15  C   -0.058802   0.457912  -0.059847   0.010226   0.000811  -0.000094
    16  C    0.011789  -0.060526   0.460058  -0.037238  -0.002286   0.001157
    17  C   -0.004380   0.012869  -0.062316   0.455650   0.002751  -0.000524
    18  H   -0.006551  -0.000068   0.000019   0.000009   0.000333  -0.000012
    19  H    0.510365  -0.006859  -0.000050   0.000016  -0.000002   0.000000
    20  H   -0.006859   0.511368  -0.006947  -0.000065  -0.000002  -0.000000
    21  H   -0.000050  -0.006947   0.511195  -0.006773  -0.000017   0.000004
    22  H    0.000016  -0.000065  -0.006773   0.499564   0.003679   0.000154
    23  C   -0.000002  -0.000002  -0.000017   0.003679   5.171461   0.408967
    24  H    0.000000  -0.000000   0.000004   0.000154   0.408967   0.523445
    25  H    0.000000   0.000001   0.000013  -0.004592   0.447125  -0.024589
    26  H   -0.000000   0.000000   0.000000   0.000392   0.405155  -0.011807
    27  C    0.000033   0.000023  -0.000016   0.000700   0.009976  -0.000379
    28  C    0.000116  -0.000001  -0.000000  -0.000016  -0.001322   0.000037
    29  C    0.000070   0.000000   0.000000   0.000001   0.000118  -0.000002
    30  C   -0.000011  -0.000005  -0.000000   0.000001  -0.000034   0.000003
    31  C   -0.000025   0.000005  -0.000002  -0.000010   0.000159   0.000020
    32  C   -0.000052  -0.000013  -0.000042  -0.000094  -0.000519   0.000305
    33  H    0.000001  -0.000000  -0.000000   0.000000  -0.000045  -0.000004
    34  H    0.000001   0.000000  -0.000000   0.000000  -0.000000   0.000000
    35  H    0.000000  -0.000000   0.000000  -0.000000   0.000000  -0.000000
    36  H   -0.000002   0.000001   0.000000   0.000002   0.000006  -0.000002
    37  H    0.000009  -0.000004  -0.000001  -0.000075  -0.000764   0.000482
    38  N    0.000000  -0.000000   0.000000  -0.000001  -0.000951   0.000015
    39  H   -0.000000  -0.000000  -0.000000   0.000001   0.000230  -0.000017
    40  H    0.000000  -0.000000  -0.000000  -0.000000   0.000076   0.000002
[...]
 ,0.00000423,0.00000580,-0.00000069,0.00000670,0.00000745,-0.00000340,-
 0.00000169,-0.00000746,-0.00000233,0.00004150,0.00000248,0.00001623,0.
 00002500,-0.00000875,-0.00000624,0.00003276,-0.00002390,-0.00001321,-0
 .00000682,-0.00000160,0.00001288,0.00478981,-0.00154244,-0.00070990,0.
 00034247,-0.00037040,-0.00099381,0.00245885,0.00242649,-0.00001893,0.0
 0128040,0.00674954,-0.00439755,-0.00827385,-0.20421041,0.14264819,-0.0
 0349622,-0.01444201,0.02071987,-0.00039912,-0.00018224,-0.00009278,0.0
 0009227,0.00017609,-0.00020135,-0.00172988,0.00000596,-0.00050495,0.00
 643662,0.21226863,-0.00014314,-0.00005169,0.00001691,-0.00007822,-0.00
 020504,0.00009336,-0.00004034,0.00014985,-0.00002925,0.00019013,-0.000
 03235,-0.00000964,0.00002348,0.00001941,-0.00003443,-0.00001884,0.0000
 0778,-0.00000550,-0.00000328,0.00000105,0.00000227,-0.00000025,0.00000
 141,0.00000172,-0.00011267,0.00004244,-0.00007001,0.00000449,-0.000010
 98,0.00001049,0.00000325,-0.00000848,0.00001475,-0.00003401,0.00001052
 ,-0.00000671,-0.00001919,0.00002941,-0.00001299,0.00001165,-0.00000243
 ,0.00001312,-0.00000056,-0.00001893,0.00000929,-0.00000566,0.00000791,
 -0.00000355,-0.00001249,0.00000820,-0.00004026,0.00000669,0.00000257,0
 .00001285,-0.00000217,-0.00000164,-0.00000552,-0.00000432,-0.00000282,
 -0.00000103,-0.00000398,-0.00000297,0.00000174,0.00000399,-0.00000002,
 0.00000207,-0.00000808,0.00000421,-0.00001610,-0.00000360,-0.00000385,
 0.00000062,-0.00001067,0.00000440,0.00000422,0.00000394,0.00000004,-0.
 00000282,0.00326863,-0.00028407,0.00293328,-0.00004120,-0.00091469,-0.
 00021461,0.00567631,-0.00046042,-0.00159339,-0.00013130,0.02028533,-0.
 01198218,0.02239801,0.14271771,-0.18703026,0.00078147,-0.00455584,0.00
 657884,-0.00048103,-0.00008129,-0.00026400,0.00008543,0.00099592,-0.00
 076026,-0.00189065,-0.00118522,-0.00012220,-0.02731411,-0.15583655,0.1
 9296432,-0.00247295,-0.00018420,-0.00228108,0.00027710,-0.00049430,0.0
 0001379,-0.00007299,-0.00013716,0.00012748,0.00037447,0.00038684,-0.00
 035560,0.00003965,0.00002640,-0.00003812,-0.00002484,-0.00000287,-0.00
 000254,-0.00000105,0.00000251,0.00000020,-0.00000707,-0.00001267,-0.00
 000071,-0.00024664,0.00014304,-0.00019049,-0.00000470,-0.00002620,0.00
 001226,-0.00000267,0.00000496,0.00001467,-0.00061057,0.00034952,-0.000
 62700,0.00029844,0.00013025,0.00021522,-0.00004322,-0.00015331,0.00007
 435,0.00006684,-0.00000179,-0.00005684,0.00003267,0.00009279,0.0000858
 6,-0.00042087,0.00002174,-0.00012722,-0.00004569,0.00002092,-0.0000255
 7,-0.00000846,0.00001075,0.00000534,0.00000407,0.00001215,-0.00000075,
 0.00001247,0.00000992,-0.00000592,0.00000693,0.00000645,0.00002290,0.0
 0004341,-0.00007204,-0.00000812,0.00002990,-0.00003038,0.00005774,0.00
 001112,-0.00000784,-0.00000775,0.00000188,-0.00001285,0.00000998,0.001
 54175,0.00237577,0.00162917,0.00462993,0.00136658,0.00209252,-0.000423
 20,-0.00021361,-0.00058317,0.00405744,0.00482078,0.00206075,-0.0045128
 8,0.00032060,0.01286126,-0.13214364,0.02449552,0.13660635,-0.00000602,
 -0.00004378,0.00007579,-0.00071686,-0.00033376,-0.00033820,-0.00025100
 ,0.00009935,0.00067693,-0.00237541,-0.00141112,-0.00211677,0.13285391,
 -0.00181035,0.00138908,-0.00115050,-0.00036657,-0.00083497,-0.00005358
 ,-0.00011855,0.00036800,0.00003383,0.00041792,-0.00000680,0.00028532,0
 .00003694,0.00001806,-0.00002608,-0.00002516,0.00000292,-0.00000640,-0
 .00000305,0.00000180,0.00000266,-0.00000797,-0.00000682,0.00000056,-0.
 00011814,0.00007668,-0.00012741,0.00002326,-0.00001671,0.00002659,0.00
 000564,0.00000031,0.00001511,0.00036956,0.00007194,0.00019849,0.000129
 91,-0.00004623,0.00005845,-0.00004246,-0.00007639,0.00000736,0.0000187
 5,-0.00000399,-0.00004173,0.00000660,-0.00000276,0.00001632,0.00015863
 ,-0.00001180,0.00010043,-0.00003052,0.00001708,-0.00002082,-0.00000155
 ,-0.00000461,-0.00000040,-0.00000333,0.00000011,-0.00000336,-0.0000046
 1,-0.00000334,0.00000126,-0.00000882,-0.00000077,-0.00001663,0.0000428
 8,-0.00006012,-0.00000772,-0.00001348,0.00000410,0.00000049,-0.0000169
 3,0.00000091,0.00001930,0.00000416,0.00000130,-0.00001644,-0.01260695,
 0.00547152,0.01961837,0.00174534,-0.00214238,0.00440267,-0.00004378,-0
 .00113044,0.00027929,0.00454375,-0.00323362,0.00115985,0.01579515,0.00
 091482,-0.02332306,0.02536978,-0.06026412,-0.02585596,-0.00074774,0.00
 024517,0.00101486,-0.00036113,-0.00001275,-0.00027680,0.00077250,-0.00
 013891,-0.00110461,-0.00187391,0.00029601,-0.00061650,-0.03157169,0.05
 900599,-0.00203701,-0.00167370,0.00032338,0.00033321,0.00030295,0.0003
 4153,0.00001514,-0.00019932,-0.00008923,0.00019571,0.00080050,-0.00014
 253,0.00002078,0.00003065,-0.00004873,-0.00002539,0.00000305,-0.000005
 62,-0.00000128,-0.00000132,-0.00000009,-0.00001142,0.00000292,-0.00000
 678,-0.00020862,0.00006460,-0.00014845,-0.00001621,-0.00002227,0.00000
 761,0.00000738,0.00000907,-0.00000160,0.00004957,0.00007212,0.00002712
 ,0.00020646,-0.00027023,-0.00023541,0.00004995,0.00009278,-0.00002945,
 -0.00005639,0.00009732,0.00012177,-0.00006997,-0.00023540,-0.00007152,
 0.00010306,-0.00007914,0.00033004,-0.00000354,0.00000668,0.00005342,0.
 00000322,0.00002030,0.00001484,0.00000778,0.00001469,0.00000974,0.0000
 1420,0.00001707,-0.00001210,-0.00004810,0.00002544,-0.00001754,-0.0001
 1287,-0.00003542,0.00003666,-0.00004712,0.00007335,0.00002237,-0.00000
 631,0.00001485,0.00001724,0.00000898,-0.00002342,-0.00001616,0.0132126
 1,-0.00523105,-0.01331576,0.00199140,0.00493671,-0.00010564,-0.0008493
 2,0.00039564,0.00006440,0.00247339,0.00048412,0.00334538,0.00138398,0.
 00176836,0.00042147,0.13496367,-0.02515522,-0.24338628,0.00067104,-0.0
 0016924,-0.00079673,-0.00037927,-0.00028090,-0.00032999,0.00008639,0.0
 0010223,-0.00012084,-0.00186339,-0.00124998,-0.00043448,-0.14984119,0.
 02535224,0.25426843,-0.05073964,-0.02650176,-0.00364607,-0.27671938,-0
 .01231592,-0.03480256,-0.05517026,0.04734818,-0.01763792,0.02068169,-0
 .00851387,0.00847247,0.00186541,0.00082586,-0.00244005,-0.00145737,0.0
 0033423,-0.00043857,-0.00012774,0.00004879,0.00016072,-0.00033287,-0.0
 0008573,0.00006468,-0.00817890,0.00385921,-0.00707306,0.00225731,0.000
 05923,0.00228095,-0.00001973,-0.00018196,0.00054215,0.00041485,0.00154
 426,0.00071777,-0.00061678,0.00007742,0.00003978,-0.00001563,-0.000212
 64,0.00019673,-0.00017275,-0.00049110,-0.00018273,-0.00007128,0.000047
 82,0.00014825,-0.00039686,-0.00079531,-0.00059146,0.00004632,0.0003601
 4,0.00025469,-0.00003024,-0.00016692,-0.00009719,-0.00007931,-0.000081
 82,-0.00001702,-0.00010726,-0.00016760,0.00006782,0.00007157,0.0001712
 2,-0.00000905,-0.00182152,0.00077392,-0.00135095,-0.00021273,-0.000112
 18,0.00006474,-0.00097867,0.00041069,0.00030565,0.00078556,0.00005876,
 -0.00073937,-0.00540317,0.00390907,-0.00188487,0.00230371,-0.00232247,
 0.00015610,0.00012647,0.00099655,-0.00045324,0.00017489,-0.00104327,0.
 00032286,0.00001884,-0.00022353,-0.00052153,0.00042604,-0.00079482,-0.
 00008078,0.00002632,0.00014555,-0.00059014,0.00006673,-0.00018647,-0.0
 0017174,0.00009186,-0.00003655,-0.00000673,0.00003784,-0.00020453,0.00
 005517,0.00003145,0.00030224,-0.00014680,0.70353096,-0.04179965,0.0011
 4421,-0.00365273,-0.01679888,-0.13034546,0.00819113,0.07393851,-0.0140
 7498,0.01516036,0.00474201,-0.00903242,0.00163003,0.00042376,0.0008501
 4,-0.00087344,-0.00048142,0.00011204,-0.00012092,-0.00006016,-0.000021
 11,0.00002552,0.00012967,-0.00004193,0.00007516,-0.00132904,0.00270080
 ,-0.00203330,-0.00211398,-0.00147026,-0.00153607,0.00009398,0.00001595
 ,0.00028547,-0.00122258,0.00102790,0.00061525,-0.00030298,-0.00000758,
 0.00000683,0.00004773,-0.00003490,0.00006445,-0.00010805,-0.00019874,-
 0.00002415,-0.00001261,-0.00008707,0.00015483,-0.00021827,-0.00051057,
 -0.00039571,0.00003161,0.00011969,0.00009226,-0.00001675,-0.00006941,-
 0.00004529,-0.00003615,-0.00003229,-0.00000749,-0.00005358,-0.00009307
 ,0.00002837,-0.00002010,0.00007324,0.00002562,0.00009130,0.00012250,-0
 .00104807,-0.00000972,0.00019231,-0.00005439,-0.00025202,0.00037109,0.
 00011724,-0.00033609,0.00021300,0.00050384,-0.00341494,-0.00123209,0.0
 0001336,-0.00087070,-0.00315510,-0.00102269,-0.00103755,0.00185967,-0.
 00056917,-0.00032075,-0.00082679,0.00149916,0.00090495,-0.00110121,-0.
 00077923,-0.00004657,0.00168978,-0.00073527,0.00025553,-0.00006814,0.0
 0020310,-0.00000049,-0.00007113,-0.00013418,0.00006313,-0.00006746,0.0
 0003922,0.00000628,-0.00011401,0.00001788,-0.00002488,0.00008442,0.000
 01704,-0.01765631,0.84452658,-0.01070596,-0.00696080,0.01417483,0.0016
 5305,0.00730331,-0.05326575,-0.01915067,0.01671084,0.01181775,0.009017
 06,-0.00212733,0.00703586,0.00073379,0.00035218,-0.00073079,-0.0004663
 6,0.00011479,-0.00015713,-0.00005169,0.00000120,0.00004797,-0.00010210
 ,-0.00000659,0.00004479,-0.00192939,0.00150071,-0.00255455,0.00027885,
 -0.00003065,0.00053955,-0.00013453,0.00001966,0.00018465,0.00043558,0.
 00088454,-0.00083826,-0.00027587,0.00001489,-0.00002649,0.00000116,-0.
 00014809,0.00010617,-0.00004985,-0.00018363,-0.00010906,0.00004720,0.0
 0005073,-0.00001770,-0.00006651,-0.00008604,-0.00005239,-0.00004230,0.
 00009858,0.00004880,-0.00000582,-0.00005775,-0.00002935,-0.00003071,-0
 .00002127,-0.00000894,-0.00003608,-0.00002916,0.00002265,0.00001856,0.
 00005237,-0.00001329,-0.00110461,0.00010111,-0.00018523,-0.00002140,0.
 00007693,0.00001200,-0.00046153,-0.00002543,0.00006149,0.00046272,-0.0
 0015341,-0.00039506,0.00022574,0.00036165,-0.00135303,-0.00027794,-0.0
 0193673,-0.00130321,-0.00074650,0.00080437,-0.00037598,-0.00016762,-0.
 00035127,0.00075250,0.00038831,-0.00067755,-0.00035096,0.00033360,0.00
 058015,-0.00006333,0.00034407,-0.00035576,0.00065377,-0.00004773,-0.00
 009488,-0.00010962,0.00009622,-0.00003659,0.00007154,-0.00002249,-0.00
 007002,0.00000172,-0.00003901,0.00009400,-0.00003041,-0.04943433,-0.11
 418660,0.07102636,0.00032191,-0.00080854,-0.00055475,-0.00384474,0.032
 97015,0.00456866,-0.00832251,0.00135823,-0.00234471,-0.00065489,0.0006
 2555,-0.00039099,-0.00004836,-0.00013966,0.00013380,0.00006670,-0.0000
 1305,0.00001489,0.00000757,0.00000496,-0.00000312,-0.00002897,0.000009
 24,-0.00001221,0.00019591,-0.00041512,0.00025137,0.00038884,0.00027152
 ,0.00031579,-0.00002392,-0.00000997,-0.00004040,0.00010050,-0.00012910
 ,-0.00000087,0.00010157,0.00000249,0.00003330,-0.00001561,-0.00003775,
 -0.00000008,0.00002046,0.00003198,-0.00002528,0.00000391,0.00003378,-0
 .00000317,0.00000772,-0.00000236,0.00006402,-0.00001099,-0.00000288,-0
 .00003854,0.00000214,0.00000988,0.00000776,0.00000616,0.00000686,-0.00
 000098,0.00000732,0.00001015,-0.00000496,0.00000208,-0.00000575,-0.000
 00647,0.00002475,0.00002537,0.00010194,0.00000953,-0.00004126,0.000008
 70,0.00003617,-0.00005068,-0.00002054,0.00004641,-0.00003662,-0.000085
 41,-0.00050532,-0.00020915,-0.00043485,0.00039075,0.00040301,-0.000145
 60,0.00040554,-0.00073211,0.00020751,0.00004431,0.00050979,-0.00066030
 ,-0.00051124,0.00045838,0.00034546,0.00032816,-0.00110007,0.00073593,-
 0.00009196,-0.00004612,-0.00026654,-0.00005921,0.00004449,0.00006323,-
 0.00001876,0.00006555,-0.00001119,-0.00002257,0.00007175,-0.00003361,0
 .00005627,0.00002653,-0.00005999,-0.16384359,0.16425879,0.01180231,0.1
 6261047,-0.00244089,-0.00171509,0.00005319,0.00480850,0.00436009,0.000
 26468,-0.00188436,0.00311375,-0.00078690,0.00134854,-0.00062500,0.0006
 8384,0.00007333,0.00007536,-0.00012617,-0.00007023,0.00001482,-0.00001
 811,-0.00000599,0.00000041,0.00000533,-0.00000520,-0.00000862,0.000007
 53,-0.00035894,0.00025702,-0.00039614,0.00001930,0.00000866,-0.0000082
 1,0.00000188,0.00001022,0.00002028,0.00000144,0.00004276,-0.00000032,-
 0.00000269,-0.00000135,0.00006598,0.00001272,-0.00003320,0.00000719,-0
 .00001006,-0.00001788,-0.00001867,0.00000734,0.00001192,-0.00000241,-0
 .00003281,-0.00003371,-0.00001313,0.00000984,0.00003395,-0.00004339,0.
 00000015,-0.00000471,-0.00000092,-0.00000147,0.00000162,-0.00000345,-0
 .00000049,-0.00000515,0.00000206,0.00000004,0.00000781,-0.00000428,-0.
 00007789,0.00001342,-0.00010630,0.00000863,0.00001384,-0.00000212,-0.0
 0004399,0.00001795,0.00000363,0.00004563,0.00003244,-0.00002030,-0.002
 47544,-0.00039111,0.00026840,0.00014572,-0.00135280,-0.00178744,0.0002
 1883,-0.00018447,0.00002188,0.00003856,-0.00004307,0.00006025,0.000015
 62,0.00002599,-0.00011900,0.00005871,-0.00035798,0.00032876,-0.0000588
 6,-0.00014822,0.00007023,-0.00009342,0.00002905,0.00002568,0.00000384,
 0.00007269,0.00001518,-0.00000048,0.00004650,-0.00003205,0.00005124,0.
 00005492,-0.00009930,0.16558804,-0.36992227,-0.00608048,-0.17988513,0.
 38018206,0.00136936,0.00128920,-0.00073164,-0.00998722,0.00583841,-0.0
 0893713,-0.00165806,-0.00070013,0.00661851,-0.00101422,0.00040707,-0.0
 0102626,-0.00005529,0.00001107,0.00014517,0.00007735,-0.00001319,0.000
 02198,0.00000330,-0.00000402,-0.00001008,0.00002187,0.00000560,0.00000
 494,0.00048953,-0.00008979,0.00020857,-0.00034991,-0.00003191,-0.00013
 710,-0.00003410,0.00000329,0.00000082,0.00003406,-0.00013213,0.0000712
 2,0.00009122,0.00000026,0.00002749,-0.00002007,-0.00001621,-0.00002003
 ,0.00002671,0.00004889,-0.00001322,-0.00000330,0.00001702,0.00000681,0
 .00000079,0.00001529,0.00004423,-0.00001312,-0.00001425,-0.00003314,0.
 00000134,0.00001185,0.00000925,0.00000853,0.00000624,0.00000082,0.0000
 1091,0.00000977,-0.00000530,0.00000411,-0.00001332,-0.00000280,0.00010
 729,-0.00009723,0.00006903,0.00003643,0.00001099,-0.00000198,0.0000370
 3,-0.00007983,-0.00003100,0.00003734,-0.00000712,-0.00002793,-0.000282
 94,-0.00028998,0.00064635,-0.00051124,0.00009795,0.00031970,0.00066310
 ,-0.00095676,0.00018664,0.00021015,0.00037150,-0.00069926,-0.00042612,
 0.00062473,0.00021977,0.00009571,-0.00046267,0.00008602,-0.00032431,-0
 .00012575,-0.00079552,-0.00001645,0.00003771,0.00006685,-0.00003744,0.
 00006640,-0.00004527,0.00000470,0.00004774,-0.00001912,0.00000757,-0.0
 0001428,-0.00008764,0.02961416,-0.02665707,-0.00238882,-0.01124582,0.0
 1256798,0.01046169,-0.00439612,0.00274798,-0.00088673,-0.01654667,-0.0
 3561608,0.01321806,0.00594011,0.00189785,-0.00067978,-0.00053713,-0.00
 145000,-0.00087389,-0.00001768,0.00007290,-0.00005502,-0.00002074,0.00
 000327,-0.00000092,-0.00000115,-0.00000322,0.00000065,0.00002467,-0.00
 000574,0.00000385,0.00000233,0.00009948,0.00009057,-0.00020517,-0.0001
 2224,-0.00020062,0.00003250,-0.00000278,0.00002205,-0.00037545,0.00009
 693,0.00023486,0.00000613,-0.00001742,0.00003882,0.00001254,0.00000067
 ,-0.00000683,-0.00001624,-0.00000969,0.00000786,-0.00000774,-0.0000267
 0,0.00003496,-0.00003385,-0.00010753,-0.00007832,0.00001428,0.00001531
 ,-0.00000548,-0.00000285,-0.00000644,-0.00000458,-0.00000229,-0.000002
 61,-0.00000142,-0.00000603,-0.00001634,0.00000180,-0.00000522,0.000011
 98,0.00000292,0.00010351,0.00000943,-0.00015366,0.00000304,0.00001308,
 -0.00001222,-0.00001712,0.00004746,0.00002024,-0.00004345,0.00003397,0
 .00009001,-0.00008927,0.00101583,0.00048601,0.00030495,0.00016116,0.00
 006298,0.00013719,-0.00021992,0.00003001,0.00003676,0.00006455,-0.0001
 6972,-0.00015814,0.00009634,0.00008128,0.00014251,-0.00041092,0.000184
 25,-0.00004877,-0.00001665,-0.00006775,-0.00000187,0.00000312,0.000009
 87,0.00000170,0.00001365,-0.00000336,0.00000568,0.00000206,-0.00000252
 ,0.00002102,0.00000714,-0.00001373,-0.16646215,-0.15644304,0.05953278,
 0.01281750,0.01499047,-0.00697297,0.16938867,0.00286916,0.00233288,0.0
 0072933,-0.00406955,0.00135576,-0.00163263,0.00190412,-0.00072517,-0.0
 0070261,-0.00169290,0.00064726,-0.00082841,-0.00016097,-0.00011247,0.0
 0019209,0.00012085,-0.00003151,0.00003851,0.00001428,-0.00000221,-0.00
 001057,0.00001843,0.00000430,-0.00000938,0.00058292,-0.00047324,0.0006
 7111,-0.00001617,0.00004183,-0.00004871,0.00001319,0.00000815,-0.00006
 132,-0.00014584,-0.00006082,-0.00010179,0.00001110,-0.00002873,-0.0000
 0462,0.00001522,0.00003997,-0.00001827,0.00000029,0.00003155,0.0000344
 2,0.00001178,-0.00002987,-0.00001897,0.00004298,0.00009731,0.00002303,
 -0.00000078,-0.00003189,-0.00001062,0.00000140,0.00001139,0.00000541,0
 .00000456,0.00000517,0.00000171,0.00000893,0.00001075,-0.00000372,-0.0
 0000876,-0.00000827,0.00000159,0.00020924,0.00001104,0.00018733,-0.000
 00342,-0.00001425,-0.00000836,0.00009069,-0.00001620,-0.00002149,-0.00
 008943,-0.00000609,0.00007075,-0.00010682,-0.00040961,-0.00013754,-0.0
 0029178,-0.00002626,0.00020016,-0.00003716,0.00000712,-0.00001731,-0.0
 0001804,0.00003084,0.00001372,0.00006335,-0.00000174,0.00002164,-0.000
 11889,0.00023334,-0.00018204,0.00000412,0.00000561,-0.00001906,0.00001
 839,0.00001125,0.00001442,-0.00000799,-0.00000271,-0.00000379,0.000003
 98,0.00000666,0.00000179,-0.00001361,-0.00002760,0.00002124,-0.1547664
 3,-0.32252534,0.10449803,-0.01753314,-0.01358263,0.00821667,0.17307271
 ,0.33322443,0.00196811,0.00343874,0.00288684,-0.01454638,-0.00949613,-
 0.00215788,0.00200573,-0.00158040,-0.00291026,-0.00319281,0.00025685,-
 0.00031500,-0.00025034,-0.00023391,0.00037968,0.00021203,-0.00004902,0
 .00005855,0.00002017,-0.00000444,-0.00001709,0.00001634,0.00001424,-0.
 00001547,0.00121420,-0.00078358,0.00115837,0.00011953,0.00012446,-0.00
 001769,0.00000930,0.00002609,-0.00008545,-0.00038531,0.00003650,-0.000
 38878,-0.00000249,-0.00005005,0.00000261,0.00004082,0.00003449,-0.0000
 1599,-0.00000669,0.00002681,0.00003588,0.00004777,-0.00004291,-0.00003
 083,0.00006318,0.00010519,0.00005950,-0.00000603,-0.00004346,-0.000045
 61,0.00000229,0.00001258,0.00000668,0.00000339,0.00000963,-0.00000068,
 0.00000616,0.00001777,-0.00000586,-0.00002224,-0.00000838,-0.00000482,
 0.00027816,-0.00016132,0.00024417,0.00001475,0.00000103,0.00000907,0.0
 0010627,-0.00005765,-0.00002449,-0.00003008,-0.00003831,0.00003616,0.0
 0019942,-0.00086335,0.00011233,-0.00027816,-0.00029639,-0.00020560,-0.
 00014641,0.00023496,-0.00004587,-0.00007366,-0.00006500,0.00020331,0.0
 0017716,-0.00012211,-0.00008061,-0.00019418,0.00033352,-0.00021828,0.0
 0001621,0.00001056,0.00001889,-0.00000149,0.00002192,0.00000725,-0.000
 00480,0.00000137,0.00000402,0.00000134,0.00000998,-0.00000327,-0.00000
 405,-0.00002523,0.00002758,0.07885146,0.12510963,-0.04224304,-0.002264
 30,-0.00480298,-0.00420263,-0.06396435,-0.11110172,0.04778429\\0.00000
 856,-0.00000213,-0.00000146,-0.00000390,0.00000246,0.00000137,0.000001
 43,-0.00000353,0.00000251,-0.00000597,-0.00000234,0.00000093,-0.000003
 76,-0.00000316,0.00000082,-0.00000018,0.00000087,-0.00000008,0.0000003
 5,0.00000063,0.00000086,0.00000091,0.00000337,0.00000157,0.00000144,0.
 00000281,0.00000595,0.00000003,0.00000072,0.00000154,0.00000141,-0.000
 00007,-0.00000247,0.00000444,0.00000173,0.00000091,-0.00000156,-0.0000
 0546,-0.00000527,0.00000230,0.00000631,0.00000265,-0.00000319,-0.00000
 904,-0.00000485,0.00000108,0.00000737,0.00000242,-0.00000510,-0.000007
 33,-0.00000076,0.00000004,0.00000127,-0.00000090,0.00000080,0.00000107
 ,-0.00000294,0.00000225,0.00000412,-0.00000126,0.00000071,-0.00000153,
 -0.00000142,-0.00000004,-0.00000010,0.00000242,-0.00000463,-0.00000003
 ,-0.00000117,0.00000017,-0.00000350,0.00000220,0.00000044,-0.00000080,
 0.00000105,0.00000433,0.00000339,0.00000079,-0.00000319,0.00000204,-0.
 00000064,0.00000548,-0.00000408,0.00000030,-0.00000590,0.00000564,0.00
 000306,0.00000306,-0.00000247,-0.00000332,-0.00000204,0.00000273,-0.00
 000049,-0.00000123,0.00000024,0.00000312,-0.00000056,0.00000123,-0.000
 00006,0.00000293,0.00000002,-0.00000433,-0.00000097,0.00000213,-0.0000
 0176,-0.00000016,-0.00000207,-0.00000113,0.00000216,-0.00000226,-0.000
 00388,-0.00000104,-0.00000512,0.00000337,-0.00000268,0.00000422,0.0000
 0002,0.00000177,0.00000066,0.00000034\\\@


 SCIENCE IS LONG AND LIFE IS SHORT.

                     DON MOSER IN THE FEBRUARY 1979 SMITHSONIAN
 Job cpu time:       1 days 22 hours 16 minutes 52.5 seconds.
 Elapsed time:       0 days  2 hours 53 minutes 40.0 seconds.
 File lengths (MBytes):  RWF=   1921 Int=      0 D2E=      0 Chk=     52 Scr=      1
 Normal termination of Gaussian 16 at Mon Feb  1 05:29:20 2021.
