 Entering Gaussian System, Link 0=g16
 Initial command:
 /apps/gaussian/16/A.03/g16/l1.exe "/beegfs/scratch/user/q/tla25/Gau-10699.inp" -scrdir="/beegfs/scratch/user/q/tla25/"
 Entering Link 1 = /apps/gaussian/16/A.03/g16/l1.exe PID=     10700.
  
 Copyright (c) 1988,1990,1992,1993,1995,1998,2003,2009,2016,
            Gaussian, Inc.  All Rights Reserved.
  
 This is part of the Gaussian(R) 16 program.  It is based on
 the Gaussian(R) 09 system (copyright 2009, Gaussian, Inc.),
 the Gaussian(R) 03 system (copyright 2003, Gaussian, Inc.),
 the Gaussian(R) 98 system (copyright 1998, Gaussian, Inc.),
 the Gaussian(R) 94 system (copyright 1995, Gaussian, Inc.),
 the Gaussian 92(TM) system (copyright 1992, Gaussian, Inc.),
 the Gaussian 90(TM) system (copyright 1990, Gaussian, Inc.),
 the Gaussian 88(TM) system (copyright 1988, Gaussian, Inc.),
 the Gaussian 86(TM) system (copyright 1986, Carnegie Mellon
 University), and the Gaussian 82(TM) system (copyright 1983,
 Carnegie Mellon University). Gaussian is a federally registered
 trademark of Gaussian, Inc.
  
 This software contains proprietary and confidential information,
 including trade secrets, belonging to Gaussian, Inc.
  
 This software is provided under written license and may be
 used, copied, transmitted, or stored only in accord with that
 written license.
  
 The following legend is applicable only to US Government
 contracts under FAR:
  
                    RESTRICTED RIGHTS LEGEND
  
 Use, reproduction and disclosure by the US Government is
 subject to restrictions as set forth in subparagraphs (a)
 and (c) of the Commercial Computer Software - Restricted
 Rights clause in FAR 52.227-19.
  
 Gaussian, Inc.
 340 Quinnipiac St., Bldg. 40, Wallingford CT 06492
  
  
 ---------------------------------------------------------------
 Warning -- This program may not be used in any manner that
 competes with the business of Gaussian, Inc. or will provide
 assistance to any competitor of Gaussian, Inc.  The licensee
 of this program is prohibited from giving any competitor of
 Gaussian, Inc. access to this program.  By using this program,
 the user acknowledges that Gaussian, Inc. is engaged in the
 business of creating and licensing software in the field of
 computational chemistry and represents and warrants to the
 licensee that it is not a competitor of Gaussian, Inc. and that
 it will not use this program in any manner prohibited above.
 ---------------------------------------------------------------
  

 Cite this work as:
 Gaussian 16, Revision A.03,
 M. J. Frisch, G. W. Trucks, H. B. Schlegel, G. E. Scuseria, 
 M. A. Robb, J. R. Cheeseman, G. Scalmani, V. Barone, 
 G. A. Petersson, H. Nakatsuji, X. Li, M. Caricato, A. V. Marenich, 
 J. Bloino, B. G. Janesko, R. Gomperts, B. Mennucci, H. P. Hratchian, 
 J. V. Ortiz, A. F. Izmaylov, J. L. Sonnenberg, D. Williams-Young, 
 F. Ding, F. Lipparini, F. Egidi, J. Goings, B. Peng, A. Petrone, 
 T. Henderson, D. Ranasinghe, V. G. Zakrzewski, J. Gao, N. Rega, 
 G. Zheng, W. Liang, M. Hada, M. Ehara, K. Toyota, R. Fukuda, 
 J. Hasegawa, M. Ishida, T. Nakajima, Y. Honda, O. Kitao, H. Nakai, 
 T. Vreven, K. Throssell, J. A. Montgomery, Jr., J. E. Peralta, 
 F. Ogliaro, M. J. Bearpark, J. J. Heyd, E. N. Brothers, K. N. Kudin, 
 V. N. Staroverov, T. A. Keith, R. Kobayashi, J. Normand, 
 K. Raghavachari, A. P. Rendell, J. C. Burant, S. S. Iyengar, 
 J. Tomasi, M. Cossi, J. M. Millam, M. Klene, C. Adamo, R. Cammi, 
 J. W. Ochterski, R. L. Martin, K. Morokuma, O. Farkas, 
 J. B. Foresman, and D. J. Fox, Gaussian, Inc., Wallingford CT, 2016.
 
 ******************************************
 Gaussian 16:  ES64L-G16RevA.03 25-Dec-2016
                27-Feb-2021 
 ******************************************
 %nprocshared=16
 Will use up to   16 processors via shared memory.
 %mem=48GB
 ----------------------------------------------------------------------
 # wB97XD def2tzvp, opt=(ts, noeigen, calcfc, maxcycles=70, maxstep=3),
  freq=noraman, scrf=(iefpcm, solvent=water)
 ----------------------------------------------------------------------
 1/5=1,6=70,8=3,10=4,11=1,18=20,26=3,38=1/1,3;
 2/9=110,12=2,17=6,18=5,40=1/2;
 3/5=44,7=101,11=2,25=1,30=1,70=2201,71=2,72=1,74=-58,140=1/1,2,3;
 4//1;
 5/5=2,38=5,53=1/2;
 8/6=4,10=90,11=11/1;
 11/6=1,8=1,9=11,15=111,16=1/1,2,10;
 10/6=1,13=1/2;
 6/7=2,8=2,9=2,10=2,28=1/1;
 7/10=1,18=20,25=1/1,2,3,16;
 1/5=1,6=70,8=3,10=4,11=1,18=20,26=3/3(2);
 2/9=110/2;
 99//99;
 2/9=110/2;
 3/5=44,7=101,11=2,25=1,30=1,70=2205,71=1,72=1,74=-58/1,2,3;
 4/5=5,16=3,69=1/1;
 5/5=2,38=5,53=1/2;
 7//1,2,3,16;
 1/5=1,6=70,8=3,11=1,18=20,26=3/3(-5);
 2/9=110/2;
 6/7=2,8=2,9=2,10=2,19=2,28=1/1;
 99/9=1/99;
 ------------------------
 3_iteration/TS-832-3.out
 ------------------------
 Symbolic Z-matrix:
 Charge =  0 Multiplicity = 1
 C                     0.08438  -0.54289  -0.04344 
 C                     0.70373   0.61704   0.5589 
 O                     0.08674   1.41353   1.26232 
 C                    -1.29556  -0.68385  -0.14712 
 C                    -1.37706  -1.2147    2.69492 
 H                    -0.32171  -0.97896   2.56299 
 H                    -1.90585  -0.30408   2.96504 
 H                    -1.48071  -1.9491    3.49386 
 N                    -1.89427  -1.72896   1.43097 
 H                    -1.45958  -2.61687   1.20514 
 H                    -2.89555  -1.88875   1.44911 
 Cl                   -1.91023  -1.87178  -1.33066 
 C                    -2.16298   0.544    -0.19099 
 C                    -1.86585   1.47947  -1.18259 
 C                    -2.63733   2.6168   -1.33519 
 C                    -3.72662   2.83792  -0.50301 
 C                    -4.03666   1.90507   0.47215 
 C                    -3.26459   0.76142   0.62326 
 H                    -1.01768   1.31075  -1.83359 
 H                    -2.38626   3.33284  -2.10721 
 H                    -4.33059   3.72868  -0.6182 
 H                    -4.88564   2.06089   1.12522 
 H                    -3.54132   0.0596    1.39435 
 Br                    1.19277  -2.0561   -0.40453 
 C                     2.15341   0.89841   0.28354 
 C                     2.64787   0.92041  -1.01645 
 C                     3.96506   1.2791   -1.25602 
 C                     4.80325   1.59583  -0.19553 
 C                     4.3153    1.5709    1.10379 
 C                     2.99062   1.2373    1.34064 
 H                     1.99607   0.6648   -1.84308 
 H                     4.33925   1.3085   -2.27147 
 H                     5.83522   1.86498  -0.38217 
 H                     4.96612   1.81775   1.93301 
 H                     2.59948   1.23377   2.35043 
 
 Add virtual bond connecting atoms N9         and C4         Dist= 3.75D+00.
 Add virtual bond connecting atoms H11        and H23        Dist= 3.88D+00.

 GradGradGradGradGradGradGradGradGradGradGradGradGradGradGradGradGradGrad
 Berny optimization.
 Initialization pass.
                           ----------------------------
                           !    Initial Parameters    !
                           ! (Angstroms and Degrees)  !
 --------------------------                            --------------------------
 ! Name  Definition              Value          Derivative Info.                !
 --------------------------------------------------------------------------------
 ! R1    R(1,2)                  1.4463         calculate D2E/DX2 analytically  !
 ! R2    R(1,4)                  1.391          calculate D2E/DX2 analytically  !
 ! R3    R(1,24)                 1.9102         calculate D2E/DX2 analytically  !
 ! R4    R(2,3)                  1.2288         calculate D2E/DX2 analytically  !
 ! R5    R(2,25)                 1.5022         calculate D2E/DX2 analytically  !
 ! R6    R(4,9)                  1.9852         calculate D2E/DX2 analytically  !
 ! R7    R(4,12)                 1.786          calculate D2E/DX2 analytically  !
 ! R8    R(4,13)                 1.504          calculate D2E/DX2 analytically  !
 ! R9    R(5,6)                  1.0894         calculate D2E/DX2 analytically  !
 ! R10   R(5,7)                  1.0871         calculate D2E/DX2 analytically  !
 ! R11   R(5,8)                  1.0901         calculate D2E/DX2 analytically  !
 ! R12   R(5,9)                  1.4593         calculate D2E/DX2 analytically  !
 ! R13   R(9,10)                 1.0141         calculate D2E/DX2 analytically  !
 ! R14   R(9,11)                 1.0141         calculate D2E/DX2 analytically  !
 ! R15   R(11,23)                2.0533         calculate D2E/DX2 analytically  !
 ! R16   R(13,14)                1.3952         calculate D2E/DX2 analytically  !
 ! R17   R(13,18)                1.387          calculate D2E/DX2 analytically  !
 ! R18   R(14,15)                1.3827         calculate D2E/DX2 analytically  !
 ! R19   R(14,19)                1.0824         calculate D2E/DX2 analytically  !
 ! R20   R(15,16)                1.3885         calculate D2E/DX2 analytically  !
 ! R21   R(15,20)                1.0825         calculate D2E/DX2 analytically  !
 ! R22   R(16,17)                1.3847         calculate D2E/DX2 analytically  !
 ! R23   R(16,21)                1.0824         calculate D2E/DX2 analytically  !
 ! R24   R(17,18)                1.3881         calculate D2E/DX2 analytically  !
 ! R25   R(17,22)                1.0824         calculate D2E/DX2 analytically  !
 ! R26   R(18,23)                1.0788         calculate D2E/DX2 analytically  !
 ! R27   R(25,26)                1.391          calculate D2E/DX2 analytically  !
 ! R28   R(25,30)                1.3904         calculate D2E/DX2 analytically  !
 ! R29   R(26,27)                1.386          calculate D2E/DX2 analytically  !
 ! R30   R(26,31)                1.0833         calculate D2E/DX2 analytically  !
 ! R31   R(27,28)                1.3884         calculate D2E/DX2 analytically  !
 ! R32   R(27,32)                1.0826         calculate D2E/DX2 analytically  !
 ! R33   R(28,29)                1.3881         calculate D2E/DX2 analytically  !
 ! R34   R(28,33)                1.0827         calculate D2E/DX2 analytically  !
 ! R35   R(29,30)                1.3864         calculate D2E/DX2 analytically  !
 ! R36   R(29,34)                1.0826         calculate D2E/DX2 analytically  !
 ! R37   R(30,35)                1.0829         calculate D2E/DX2 analytically  !
 ! A1    A(2,1,4)              122.4889         calculate D2E/DX2 analytically  !
 ! A2    A(2,1,24)             117.7471         calculate D2E/DX2 analytically  !
 ! A3    A(4,1,24)             118.7691         calculate D2E/DX2 analytically  !
 ! A4    A(1,2,3)              122.9043         calculate D2E/DX2 analytically  !
 ! A5    A(1,2,25)             119.1524         calculate D2E/DX2 analytically  !
 ! A6    A(3,2,25)             117.9105         calculate D2E/DX2 analytically  !
 ! A7    A(1,4,9)              107.0548         calculate D2E/DX2 analytically  !
 ! A8    A(1,4,12)             117.2727         calculate D2E/DX2 analytically  !
 ! A9    A(1,4,13)             119.4464         calculate D2E/DX2 analytically  !
 ! A10   A(9,4,12)              94.1763         calculate D2E/DX2 analytically  !
 ! A11   A(9,4,13)             106.2029         calculate D2E/DX2 analytically  !
 ! A12   A(12,4,13)            108.9773         calculate D2E/DX2 analytically  !
 ! A13   A(6,5,7)              108.6659         calculate D2E/DX2 analytically  !
 ! A14   A(6,5,8)              109.0656         calculate D2E/DX2 analytically  !
 ! A15   A(6,5,9)              108.3439         calculate D2E/DX2 analytically  !
 ! A16   A(7,5,8)              109.6307         calculate D2E/DX2 analytically  !
 ! A17   A(7,5,9)              109.7554         calculate D2E/DX2 analytically  !
 ! A18   A(8,5,9)              111.3259         calculate D2E/DX2 analytically  !
 ! A19   A(4,9,5)              113.3347         calculate D2E/DX2 analytically  !
 ! A20   A(4,9,10)              98.8964         calculate D2E/DX2 analytically  !
 ! A21   A(4,9,11)             113.2621         calculate D2E/DX2 analytically  !
 ! A22   A(5,9,10)             110.4579         calculate D2E/DX2 analytically  !
 ! A23   A(5,9,11)             112.9529         calculate D2E/DX2 analytically  !
 ! A24   A(10,9,11)            106.8133         calculate D2E/DX2 analytically  !
 ! A25   A(9,11,23)             99.2378         calculate D2E/DX2 analytically  !
 ! A26   A(4,13,14)            116.4415         calculate D2E/DX2 analytically  !
 ! A27   A(4,13,18)            124.675          calculate D2E/DX2 analytically  !
 ! A28   A(14,13,18)           118.7679         calculate D2E/DX2 analytically  !
 ! A29   A(13,14,15)           120.7367         calculate D2E/DX2 analytically  !
 ! A30   A(13,14,19)           119.3275         calculate D2E/DX2 analytically  !
 ! A31   A(15,14,19)           119.935          calculate D2E/DX2 analytically  !
 ! A32   A(14,15,16)           120.1683         calculate D2E/DX2 analytically  !
 ! A33   A(14,15,20)           119.5629         calculate D2E/DX2 analytically  !
 ! A34   A(16,15,20)           120.2687         calculate D2E/DX2 analytically  !
 ! A35   A(15,16,17)           119.3707         calculate D2E/DX2 analytically  !
 ! A36   A(15,16,21)           120.3338         calculate D2E/DX2 analytically  !
 ! A37   A(17,16,21)           120.295          calculate D2E/DX2 analytically  !
 ! A38   A(16,17,18)           120.4764         calculate D2E/DX2 analytically  !
 ! A39   A(16,17,22)           120.2363         calculate D2E/DX2 analytically  !
 ! A40   A(18,17,22)           119.2873         calculate D2E/DX2 analytically  !
 ! A41   A(13,18,17)           120.4636         calculate D2E/DX2 analytically  !
 ! A42   A(13,18,23)           121.425          calculate D2E/DX2 analytically  !
 ! A43   A(17,18,23)           118.1083         calculate D2E/DX2 analytically  !
 ! A44   A(11,23,18)           123.7598         calculate D2E/DX2 analytically  !
 ! A45   A(2,25,26)            121.1521         calculate D2E/DX2 analytically  !
 ! A46   A(2,25,30)            119.1683         calculate D2E/DX2 analytically  !
 ! A47   A(26,25,30)           119.5138         calculate D2E/DX2 analytically  !
 ! A48   A(25,26,27)           120.228          calculate D2E/DX2 analytically  !
 ! A49   A(25,26,31)           119.7047         calculate D2E/DX2 analytically  !
 ! A50   A(27,26,31)           120.0648         calculate D2E/DX2 analytically  !
 ! A51   A(26,27,28)           120.0503         calculate D2E/DX2 analytically  !
 ! A52   A(26,27,32)           119.8434         calculate D2E/DX2 analytically  !
 ! A53   A(28,27,32)           120.106          calculate D2E/DX2 analytically  !
 ! A54   A(27,28,29)           119.9111         calculate D2E/DX2 analytically  !
 ! A55   A(27,28,33)           120.0318         calculate D2E/DX2 analytically  !
 ! A56   A(29,28,33)           120.0569         calculate D2E/DX2 analytically  !
 ! A57   A(28,29,30)           120.0055         calculate D2E/DX2 analytically  !
 ! A58   A(28,29,34)           120.1            calculate D2E/DX2 analytically  !
 ! A59   A(30,29,34)           119.8934         calculate D2E/DX2 analytically  !
 ! A60   A(25,30,29)           120.2705         calculate D2E/DX2 analytically  !
 ! A61   A(25,30,35)           119.3845         calculate D2E/DX2 analytically  !
 ! A62   A(29,30,35)           120.3444         calculate D2E/DX2 analytically  !
 ! D1    D(4,1,2,3)             15.7578         calculate D2E/DX2 analytically  !
 ! D2    D(4,1,2,25)          -162.113          calculate D2E/DX2 analytically  !
 ! D3    D(24,1,2,3)          -152.6805         calculate D2E/DX2 analytically  !
 ! D4    D(24,1,2,25)           29.4488         calculate D2E/DX2 analytically  !
 ! D5    D(2,1,4,9)            -94.4636         calculate D2E/DX2 analytically  !
 ! D6    D(2,1,4,12)           161.4222         calculate D2E/DX2 analytically  !
 ! D7    D(2,1,4,13)            26.0913         calculate D2E/DX2 analytically  !
 ! D8    D(24,1,4,9)            73.8617         calculate D2E/DX2 analytically  !
 ! D9    D(24,1,4,12)          -30.2525         calculate D2E/DX2 analytically  !
 ! D10   D(24,1,4,13)         -165.5835         calculate D2E/DX2 analytically  !
 ! D11   D(1,2,25,26)           50.4098         calculate D2E/DX2 analytically  !
 ! D12   D(1,2,25,30)         -134.293          calculate D2E/DX2 analytically  !
 ! D13   D(3,2,25,26)         -127.5672         calculate D2E/DX2 analytically  !
 ! D14   D(3,2,25,30)           47.73           calculate D2E/DX2 analytically  !
 ! D15   D(1,4,9,5)             49.6759         calculate D2E/DX2 analytically  !
 ! D16   D(1,4,9,10)           -67.2485         calculate D2E/DX2 analytically  !
 ! D17   D(1,4,9,11)          -179.9527         calculate D2E/DX2 analytically  !
 ! D18   D(12,4,9,5)           169.8733         calculate D2E/DX2 analytically  !
 ! D19   D(12,4,9,10)           52.9488         calculate D2E/DX2 analytically  !
 ! D20   D(12,4,9,11)          -59.7554         calculate D2E/DX2 analytically  !
 ! D21   D(13,4,9,5)           -78.9796         calculate D2E/DX2 analytically  !
 ! D22   D(13,4,9,10)          164.096          calculate D2E/DX2 analytically  !
 ! D23   D(13,4,9,11)           51.3918         calculate D2E/DX2 analytically  !
 ! D24   D(1,4,13,14)           55.1866         calculate D2E/DX2 analytically  !
 ! D25   D(1,4,13,18)         -128.7843         calculate D2E/DX2 analytically  !
 ! D26   D(9,4,13,14)          176.1687         calculate D2E/DX2 analytically  !
 ! D27   D(9,4,13,18)           -7.8021         calculate D2E/DX2 analytically  !
 ! D28   D(12,4,13,14)         -83.4544         calculate D2E/DX2 analytically  !
 ! D29   D(12,4,13,18)          92.5748         calculate D2E/DX2 analytically  !
 ! D30   D(6,5,9,4)            -43.9926         calculate D2E/DX2 analytically  !
 ! D31   D(6,5,9,10)            65.9263         calculate D2E/DX2 analytically  !
 ! D32   D(6,5,9,11)          -174.5187         calculate D2E/DX2 analytically  !
 ! D33   D(7,5,9,4)             74.5199         calculate D2E/DX2 analytically  !
 ! D34   D(7,5,9,10)          -175.5612         calculate D2E/DX2 analytically  !
 ! D35   D(7,5,9,11)           -56.0063         calculate D2E/DX2 analytically  !
 ! D36   D(8,5,9,4)           -163.9185         calculate D2E/DX2 analytically  !
 ! D37   D(8,5,9,10)           -53.9996         calculate D2E/DX2 analytically  !
 ! D38   D(8,5,9,11)            65.5554         calculate D2E/DX2 analytically  !
 ! D39   D(4,9,11,23)          -57.3449         calculate D2E/DX2 analytically  !
 ! D40   D(5,9,11,23)           73.2178         calculate D2E/DX2 analytically  !
 ! D41   D(10,9,11,23)        -165.1481         calculate D2E/DX2 analytically  !
 ! D42   D(9,11,23,18)          56.091          calculate D2E/DX2 analytically  !
 ! D43   D(4,13,14,15)         177.5858         calculate D2E/DX2 analytically  !
 ! D44   D(4,13,14,19)          -2.741          calculate D2E/DX2 analytically  !
 ! D45   D(18,13,14,15)          1.3109         calculate D2E/DX2 analytically  !
 ! D46   D(18,13,14,19)       -179.016          calculate D2E/DX2 analytically  !
 ! D47   D(4,13,18,17)        -177.4275         calculate D2E/DX2 analytically  !
 ! D48   D(4,13,18,23)           3.2178         calculate D2E/DX2 analytically  !
 ! D49   D(14,13,18,17)         -1.4837         calculate D2E/DX2 analytically  !
 ! D50   D(14,13,18,23)        179.1616         calculate D2E/DX2 analytically  !
 ! D51   D(13,14,15,16)         -0.3451         calculate D2E/DX2 analytically  !
 ! D52   D(13,14,15,20)        179.6517         calculate D2E/DX2 analytically  !
 ! D53   D(19,14,15,16)        179.9837         calculate D2E/DX2 analytically  !
 ! D54   D(19,14,15,20)         -0.0195         calculate D2E/DX2 analytically  !
 ! D55   D(14,15,16,17)         -0.4608         calculate D2E/DX2 analytically  !
 ! D56   D(14,15,16,21)        179.82           calculate D2E/DX2 analytically  !
 ! D57   D(20,15,16,17)        179.5424         calculate D2E/DX2 analytically  !
 ! D58   D(20,15,16,21)         -0.1768         calculate D2E/DX2 analytically  !
 ! D59   D(15,16,17,18)          0.2857         calculate D2E/DX2 analytically  !
 ! D60   D(15,16,17,22)       -179.6919         calculate D2E/DX2 analytically  !
 ! D61   D(21,16,17,18)       -179.995          calculate D2E/DX2 analytically  !
 ! D62   D(21,16,17,22)          0.0275         calculate D2E/DX2 analytically  !
 ! D63   D(16,17,18,13)          0.7012         calculate D2E/DX2 analytically  !
 ! D64   D(16,17,18,23)       -179.923          calculate D2E/DX2 analytically  !
 ! D65   D(22,17,18,13)       -179.321          calculate D2E/DX2 analytically  !
 ! D66   D(22,17,18,23)          0.0548         calculate D2E/DX2 analytically  !
 ! D67   D(13,18,23,11)        -18.541          calculate D2E/DX2 analytically  !
 ! D68   D(17,18,23,11)        162.0895         calculate D2E/DX2 analytically  !
 ! D69   D(2,25,26,27)         175.2051         calculate D2E/DX2 analytically  !
 ! D70   D(2,25,26,31)          -4.2195         calculate D2E/DX2 analytically  !
 ! D71   D(30,25,26,27)         -0.0761         calculate D2E/DX2 analytically  !
 ! D72   D(30,25,26,31)       -179.5007         calculate D2E/DX2 analytically  !
 ! D73   D(2,25,30,29)        -176.5589         calculate D2E/DX2 analytically  !
 ! D74   D(2,25,30,35)           3.7184         calculate D2E/DX2 analytically  !
 ! D75   D(26,25,30,29)         -1.1835         calculate D2E/DX2 analytically  !
 ! D76   D(26,25,30,35)        179.0938         calculate D2E/DX2 analytically  !
 ! D77   D(25,26,27,28)          1.1149         calculate D2E/DX2 analytically  !
 ! D78   D(25,26,27,32)       -179.0835         calculate D2E/DX2 analytically  !
 ! D79   D(31,26,27,28)       -179.4625         calculate D2E/DX2 analytically  !
 ! D80   D(31,26,27,32)          0.3391         calculate D2E/DX2 analytically  !
 ! D81   D(26,27,28,29)         -0.8971         calculate D2E/DX2 analytically  !
 ! D82   D(26,27,28,33)        179.2995         calculate D2E/DX2 analytically  !
 ! D83   D(32,27,28,29)        179.3018         calculate D2E/DX2 analytically  !
 ! D84   D(32,27,28,33)         -0.5016         calculate D2E/DX2 analytically  !
 ! D85   D(27,28,29,30)         -0.3592         calculate D2E/DX2 analytically  !
 ! D86   D(27,28,29,34)       -179.9741         calculate D2E/DX2 analytically  !
 ! D87   D(33,28,29,30)        179.4442         calculate D2E/DX2 analytically  !
 ! D88   D(33,28,29,34)         -0.1707         calculate D2E/DX2 analytically  !
 ! D89   D(28,29,30,25)          1.4033         calculate D2E/DX2 analytically  !
 ! D90   D(28,29,30,35)       -178.8766         calculate D2E/DX2 analytically  !
 ! D91   D(34,29,30,25)       -178.981          calculate D2E/DX2 analytically  !
 ! D92   D(34,29,30,35)          0.7391         calculate D2E/DX2 analytically  !
 --------------------------------------------------------------------------------
 Trust Radius=3.00D-02 FncErr=1.00D-07 GrdErr=1.00D-06 EigMax=2.50D+02 EigMin=1.00D-04
 Number of steps in this run=     70 maximum allowed number of steps=    210.
 Search for a saddle point of order  1.
 GradGradGradGradGradGradGradGradGradGradGradGradGradGradGradGradGradGrad

                          Input orientation:                          
 ---------------------------------------------------------------------
 Center     Atomic      Atomic             Coordinates (Angstroms)
 Number     Number       Type             X           Y           Z
 ---------------------------------------------------------------------
      1          6           0        0.084380   -0.542890   -0.043440
      2          6           0        0.703730    0.617040    0.558900
      3          8           0        0.086740    1.413530    1.262320
      4          6           0       -1.295560   -0.683850   -0.147120
      5          6           0       -1.377060   -1.214700    2.694920
      6          1           0       -0.321710   -0.978960    2.562990
      7          1           0       -1.905850   -0.304080    2.965040
      8          1           0       -1.480710   -1.949100    3.493860
      9          7           0       -1.894270   -1.728960    1.430970
     10          1           0       -1.459580   -2.616870    1.205140
     11          1           0       -2.895550   -1.888750    1.449110
     12         17           0       -1.910230   -1.871780   -1.330660
     13          6           0       -2.162980    0.544000   -0.190990
     14          6           0       -1.865850    1.479470   -1.182590
     15          6           0       -2.637330    2.616800   -1.335190
     16          6           0       -3.726620    2.837920   -0.503010
     17          6           0       -4.036660    1.905070    0.472150
     18          6           0       -3.264590    0.761420    0.623260
     19          1           0       -1.017680    1.310750   -1.833590
     20          1           0       -2.386260    3.332840   -2.107210
     21          1           0       -4.330590    3.728680   -0.618200
     22          1           0       -4.885640    2.060890    1.125220
     23          1           0       -3.541320    0.059600    1.394350
     24         35           0        1.192770   -2.056100   -0.404530
     25          6           0        2.153410    0.898410    0.283540
     26          6           0        2.647870    0.920410   -1.016450
     27          6           0        3.965060    1.279100   -1.256020
     28          6           0        4.803250    1.595830   -0.195530
     29          6           0        4.315300    1.570900    1.103790
     30          6           0        2.990620    1.237300    1.340640
     31          1           0        1.996070    0.664800   -1.843080
     32          1           0        4.339250    1.308500   -2.271470
     33          1           0        5.835220    1.864980   -0.382170
     34          1           0        4.966120    1.817750    1.933010
     35          1           0        2.599480    1.233770    2.350430
 ---------------------------------------------------------------------
                    Distance matrix (angstroms):
                    1          2          3          4          5
     1  C    0.000000
     2  C    1.446321   0.000000
     3  O    2.352147   1.228769   0.000000
     4  C    1.390990   2.487557   2.880326   0.000000
     5  C    3.175807   3.499649   3.332063   2.892341   0.000000
     6  H    2.673676   2.759551   2.753649   2.894852   1.089377
     7  H    3.615107   3.667135   3.133665   3.194091   1.087112
     8  H    4.115753   4.468875   4.329428   3.858999   1.090134
     9  N    2.737828   3.607468   3.718614   1.985215   1.459294
    10  H    2.871264   3.944073   4.317233   2.364757   2.047519
    11  H    3.594305   4.475073   4.453538   2.561192   2.076583
    12  Cl   2.720543   4.073997   4.637316   1.785991   4.113553
    13  C    2.500745   2.964067   2.815925   1.503981   3.469751
    14  C    3.031666   3.221694   3.129623   2.465235   4.746846
    15  C    4.365772   4.330046   3.951642   3.755815   5.701794
    16  C    5.115154   5.068329   4.437003   4.294133   5.671941
    17  C    4.820924   4.913028   4.227104   3.820946   4.663383
    18  C    3.655313   3.971467   3.473479   2.561127   3.429227
    19  H    2.802705   3.027952   3.288612   2.626752   5.197543
    20  H    5.038302   4.902219   4.599262   4.600585   6.690221
    21  H    6.169977   6.034256   5.330017   5.376220   6.643577
    22  H    5.731190   5.800558   5.016217   4.694797   5.050107
    23  H    3.946636   4.362243   3.874710   2.823524   2.828311
    24  Br   1.910162   2.883233   4.005000   2.853264   4.113219
    25  C    2.542665   1.502187   2.344032   3.818954   4.769089
    26  C    3.107970   2.520603   3.463430   4.345115   5.876481
    27  C    4.455297   3.790585   4.626173   5.723369   7.096986
    28  C    5.183145   4.281735   4.940043   6.511126   7.379025
    29  C    4.866716   3.774943   4.234456   6.174984   6.534082
    30  C    3.678449   2.495136   2.910277   4.927026   5.188738
    31  H    2.889944   2.727990   3.721511   3.940808   5.958521
    32  H    5.147396   4.658982   5.530149   6.342981   7.981715
    33  H    6.243776   5.364248   5.996097   7.576266   8.424363
    34  H    5.771513   4.636578   4.941818   7.056457   7.071930
    35  H    3.900367   2.680262   2.744114   5.008628   4.682579
                    6          7          8          9         10
     6  H    0.000000
     7  H    1.768221   0.000000
     8  H    1.775098   1.779462   0.000000
     9  N    2.077719   2.093750   2.115422   0.000000
    10  H    2.412727   2.940307   2.384240   1.014070   0.000000
    11  H    2.948406   2.405978   2.487251   1.014112   1.628401
    12  Cl   4.298957   4.572826   4.844219   2.765367   2.681143
    13  C    3.646106   3.278091   4.501018   2.805228   3.526337
    14  C    4.738947   4.515029   5.811421   4.138300   4.758814
    15  C    5.786829   5.249627   6.745735   5.204749   5.935627
    16  C    5.963417   5.021428   6.628321   5.287171   6.149145
    17  C    5.146853   3.954137   5.524331   4.326124   5.256097
    18  C    3.930905   2.909536   4.332377   2.955024   3.874208
    19  H    5.005703   5.140367   6.262806   4.545943   4.985514
    20  H    6.683169   6.259848   7.751832   6.195369   6.872368
    21  H    6.953629   5.914569   7.567565   6.318274   7.199533
    22  H    5.668979   4.225774   5.769231   4.837845   5.798768
    23  H    3.579136   2.296539   3.562153   2.431679   3.396017
    24  Br   3.501436   4.901533   4.728254   3.606369   3.152850
    25  C    3.853132   5.011389   5.623282   4.960180   5.124474
    26  C    5.023784   6.171548   6.754418   5.800005   5.858238
    27  C    6.169284   7.402121   7.914483   7.113374   7.117767
    28  C    6.364290   7.655775   8.103473   7.652222   7.676702
    29  C    5.489345   6.758884   7.190032   7.039523   7.134208
    30  C    4.168630   5.384231   5.897652   5.715681   5.888741
    31  H    5.242853   6.267514   6.885013   5.619985   5.657077
    32  H    7.094295   8.307992   8.816060   7.860725   7.818042
    33  H    7.393899   8.708203   9.115572   8.714866   8.707505
    34  H    6.014949   7.265757   7.628042   7.739260   7.841254
    35  H    3.670791   4.800076   5.299627   5.460491   5.710962
                   11         12         13         14         15
    11  H    0.000000
    12  Cl   2.949282   0.000000
    13  C    3.024047   2.683044   0.000000
    14  C    4.396707   3.354813   1.395228   0.000000
    15  C    5.302734   4.547092   2.414685   1.382746   0.000000
    16  C    5.181009   5.115227   2.793635   2.402016   1.388514
    17  C    4.080399   4.694297   2.408930   2.762556   2.393985
    18  C    2.800289   3.547652   1.387018   2.394403   2.769732
    19  H    4.953717   3.343364   2.144237   1.082432   2.139494
    20  H    6.338122   5.283721   3.391074   2.135586   1.082481
    21  H    6.155374   6.142548   3.875981   3.384143   2.148833
    22  H    4.434526   5.509111   3.383229   3.844889   3.378987
    23  H    2.053311   3.717037   2.155868   3.385831   3.847968
    24  Br   4.492032   3.243501   4.250550   4.739281   6.113247
    25  C    5.883775   5.176173   4.356835   4.317594   5.340818
    26  C    6.685796   5.354561   4.895646   4.551244   5.559917
    27  C    8.026268   6.667282   6.263189   5.834814   6.737007
    28  C    8.609219   7.640920   7.045192   6.742753   7.596278
    29  C    8.005297   7.519030   6.685738   6.591093   7.441881
    30  C    6.665655   6.389096   5.420899   5.478196   6.382547
    31  H    6.425502   4.685722   4.476795   4.001795   5.053380
    32  H    8.741136   7.074977   6.869633   6.302234   7.159674
    33  H    9.678348   8.651879   8.108806   7.752146   8.559064
    34  H    8.705065   8.458627   7.547045   7.516463   8.314569
    35  H    6.384189   6.597905   5.442024   5.699278   6.551393
                   16         17         18         19         20
    16  C    0.000000
    17  C    1.384656   0.000000
    18  C    2.407033   1.388114   0.000000
    19  H    3.382462   3.844983   3.374386   0.000000
    20  H    2.148248   3.378675   3.852159   2.456975   0.000000
    21  H    1.082359   2.144950   3.388541   4.277725   2.480778
    22  H    2.144350   1.082380   2.137379   4.927310   4.279411
    23  H    3.369477   2.121691   1.078754   4.284126   4.930435
    24  Br   6.939851   6.618638   5.372414   4.273638   6.689488
    25  C    6.241403   6.274225   5.430368   3.835111   5.678973
    26  C    6.676420   6.918701   6.137680   3.775757   5.687885
    27  C    7.884091   8.210112   7.487825   5.016202   6.729163
    28  C    8.625312   8.870481   8.152098   6.053737   7.639423
    29  C    8.298170   8.382474   7.638121   6.093977   7.637137
    30  C    7.147191   7.112163   6.314170   5.113472   6.722336
    31  H    6.266372   6.579695   5.810913   3.082212   5.137414
    32  H    8.397907   8.833981   8.154578   5.374797   7.025484
    33  H    9.611972   9.908859   9.221457   7.026808   8.527785
    34  H    9.085079   9.120953   8.400944   7.088737   8.525044
    35  H    7.122848   6.929425   6.131358   5.531347   7.009583
                   21         22         23         24         25
    21  H    0.000000
    22  H    2.475705   0.000000
    23  H    4.258574   2.425858   0.000000
    24  Br   8.001052   7.499121   5.488512   0.000000
    25  C    7.132028   7.183872   5.862376   3.182043   0.000000
    26  C    7.532854   7.914621   6.697688   3.369180   1.391024
    27  C    8.673238   9.198717   8.053408   4.419750   2.407747
    28  C    9.389075   9.789548   8.632472   5.139634   2.781646
    29  C    9.075940   9.214003   8.005931   5.018003   2.408074
    30  C    7.977728   7.922132   6.637477   4.138160   1.390405
    31  H    7.135427   7.623503   6.442818   3.180883   2.145190
    32  H    9.151869   9.859117   8.780739   4.970547   3.387351
    33  H   10.337929  10.828086   9.712617   6.076817   3.864344
    34  H    9.827978   9.887812   8.703895   5.891433   3.387813
    35  H    7.941235   7.629698   6.324728   4.515737   2.140906
                   26         27         28         29         30
    26  C    0.000000
    27  C    1.386017   0.000000
    28  C    2.403282   1.388351   0.000000
    29  C    2.774685   2.403439   1.388146   0.000000
    30  C    2.402867   2.773792   2.402913   1.386421   0.000000
    31  H    1.083281   2.144511   3.385483   3.857964   3.384222
    32  H    2.141601   1.082599   2.146481   3.385529   3.856321
    33  H    3.384335   2.145779   1.082700   2.145860   3.384347
    34  H    3.857307   3.385584   2.146266   1.082639   2.142528
    35  H    3.381777   3.856598   3.386680   2.147512   1.082903
                   31         32         33         34         35
    31  H    0.000000
    32  H    2.467460   0.000000
    33  H    4.279458   2.473267   0.000000
    34  H    4.940582   4.281350   2.473383   0.000000
    35  H    4.274735   4.939063   4.282002   2.473107   0.000000
 Stoichiometry    C16H15BrClNO
 Framework group  C1[X(C16H15BrClNO)]
 Deg. of freedom    99
 Full point group                 C1      NOp   1
 Largest Abelian subgroup         C1      NOp   1
 Largest concise Abelian subgroup C1      NOp   1
                         Standard orientation:                         
 ---------------------------------------------------------------------
 Center     Atomic      Atomic             Coordinates (Angstroms)
 Number     Number       Type             X           Y           Z
 ---------------------------------------------------------------------
      1          6           0        0.084379   -0.542890   -0.043441
      2          6           0        0.703729    0.617040    0.558899
      3          8           0        0.086739    1.413530    1.262319
      4          6           0       -1.295561   -0.683850   -0.147121
      5          6           0       -1.377061   -1.214700    2.694919
      6          1           0       -0.321711   -0.978960    2.562989
      7          1           0       -1.905851   -0.304080    2.965039
      8          1           0       -1.480711   -1.949100    3.493859
      9          7           0       -1.894271   -1.728960    1.430969
     10          1           0       -1.459581   -2.616870    1.205139
     11          1           0       -2.895551   -1.888749    1.449109
     12         17           0       -1.910231   -1.871780   -1.330661
     13          6           0       -2.162981    0.544000   -0.190991
     14          6           0       -1.865851    1.479470   -1.182591
     15          6           0       -2.637331    2.616801   -1.335191
     16          6           0       -3.726621    2.837921   -0.503011
     17          6           0       -4.036661    1.905071    0.472149
     18          6           0       -3.264591    0.761421    0.623259
     19          1           0       -1.017681    1.310750   -1.833591
     20          1           0       -2.386261    3.332841   -2.107211
     21          1           0       -4.330591    3.728681   -0.618201
     22          1           0       -4.885641    2.060891    1.125219
     23          1           0       -3.541321    0.059601    1.394349
     24         35           0        1.192769   -2.056100   -0.404531
     25          6           0        2.153409    0.898410    0.283539
     26          6           0        2.647869    0.920410   -1.016451
     27          6           0        3.965059    1.279100   -1.256021
     28          6           0        4.803249    1.595830   -0.195531
     29          6           0        4.315299    1.570900    1.103789
     30          6           0        2.990619    1.237300    1.340639
     31          1           0        1.996069    0.664800   -1.843081
     32          1           0        4.339249    1.308500   -2.271471
     33          1           0        5.835219    1.864980   -0.382171
     34          1           0        4.966119    1.817750    1.933009
     35          1           0        2.599479    1.233770    2.350429
 ---------------------------------------------------------------------
 Rotational constants (GHZ):           0.3633302           0.2012369           0.1625388
 Standard basis: def2TZVP (5D, 7F)
 There are   835 symmetry adapted cartesian basis functions of A   symmetry.
 There are   733 symmetry adapted basis functions of A   symmetry.
   733 basis functions,  1221 primitive gaussians,   835 cartesian basis functions
    89 alpha electrons       89 beta electrons
       nuclear repulsion energy      2150.4157759555 Hartrees.
 NAtoms=   35 NActive=   35 NUniq=   35 SFac= 1.00D+00 NAtFMM=   60 NAOKFM=F Big=F
 Integral buffers will be    131072 words long.
 Raffenetti 2 integral format.
 Two-electron integral symmetry is turned on.
 Nuclear repulsion after empirical dispersion term =     2150.3862537196 Hartrees.
 Force inversion solution in PCM.
 ------------------------------------------------------------------------------
 Polarizable Continuum Model (PCM)
 =================================
 Model                : PCM.
 Atomic radii         : UFF (Universal Force Field).
 Polarization charges : Total charges.
 Charge compensation  : None.
 Solution method      : Matrix inversion.
 Cavity type          : Scaled VdW (van der Waals Surface) (Alpha=1.100).
 Cavity algorithm     : GePol (No added spheres)
                        Default sphere list used, NSphG=   35.
                        Lebedev-Laikov grids with approx.  5.0 points / Ang**2.
                        Smoothing algorithm: York/Karplus (Gamma=1.0000).
                        Polarization charges: spherical gaussians, with
                                              point-specific exponents (IZeta= 3).
                        Self-potential: point-specific (ISelfS= 7).
                        Self-field    : sphere-specific E.n sum rule (ISelfD= 2).
 1st derivatives      : Analytical E(r).r(x)/FMM algorithm (CHGder, D1EAlg=3).
                        Cavity 1st derivative terms included.
 2nd derivatives      : Analytical E(r).r(xy)/FMM algorithm (CHGder, D2EAlg=3).
                        Cavity 2nd derivative terms included.
 Solvent              : Water, Eps=  78.355300 Eps(inf)=   1.777849
 ------------------------------------------------------------------------------
 One-electron integrals computed using PRISM.
   1 Symmetry operations used in ECPInt.
 ECPInt:  NShTT=   41328 NPrTT=  133929 LenC2=   36663 LenP2D=   83158.
 LDataN:  DoStor=T MaxTD1= 6 Len=  172
 NBasis=   733 RedAO= T EigKep=  6.60D-06  NBF=   733
 NBsUse=   733 1.00D-06 EigRej= -1.00D+00 NBFU=   733
 ExpMin= 9.52D-02 ExpMax= 5.65D+05 ExpMxC= 5.46D+03 IAcc=3 IRadAn=         5 AccDes= 0.00D+00
 Harris functional with IExCor= 4639 and IRadAn=       5 diagonalized for initial guess.
 HarFok:  IExCor= 4639 AccDes= 0.00D+00 IRadAn=         5 IDoV= 1 UseB2=F ITyADJ=14
 ICtDFT=  3500011 ScaDFX=  1.000000  1.000000  1.000000  1.000000
 FoFCou: FMM=F IPFlag=           0 FMFlag=      100000 FMFlg1=           0
         NFxFlg=           0 DoJE=T BraDBF=F KetDBF=T FulRan=T
         wScrn=  0.000000 ICntrl=       500 IOpCl=  0 I1Cent=   200000004 NGrid=           0
         NMat0=    1 NMatS0=      1 NMatT0=    0 NMatD0=    1 NMtDS0=    0 NMtDT0=    0
 Petite list used in FoFCou.
 Requested convergence on RMS density matrix=1.00D-08 within 128 cycles.
 Requested convergence on MAX density matrix=1.00D-06.
 Requested convergence on             energy=1.00D-06.
 No special actions if energy rises.
 Inv3:  Mode=1 IEnd=    21870000.
 Iteration    1 A*A^-1 deviation from unit magnitude is 5.33D-15 for   2679.
 Iteration    1 A*A^-1 deviation from orthogonality  is 2.62D-15 for   2679    766.
 Iteration    1 A^-1*A deviation from unit magnitude is 5.66D-15 for   2666.
 Iteration    1 A^-1*A deviation from orthogonality  is 1.42D-15 for   2696   2688.
 Error on total polarization charges =  0.01780
 SCF Done:  E(RwB97XD) =  -3783.10738697     A.U. after   15 cycles
            NFock= 15  Conv=0.48D-08     -V/T= 2.0021
 DoSCS=F DFT=T ScalE2(SS,OS)=  1.000000  1.000000
 Range of M.O.s used for correlation:     1   733
 NBasis=   733 NAE=    89 NBE=    89 NFC=     0 NFV=     0
 NROrb=    733 NOA=    89 NOB=    89 NVA=   644 NVB=   644

 **** Warning!!: The largest alpha MO coefficient is  0.44009849D+02

   1 Symmetry operations used in ECPInt.
 ECPInt:  NShTT=   41328 NPrTT=  133929 LenC2=   36663 LenP2D=   83158.
 LDataN:  DoStor=T MaxTD1= 7 Len=  274
 Number of processors reduced to  12 by ecpmxn.
 Symmetrizing basis deriv contribution to polar:
 IMax=3 JMax=2 DiffMx= 0.00D+00
 G2DrvN: will do    36 centers at a time, making    1 passes.
 Calling FoFCou, ICntrl=  3107 FMM=F I1Cent=   0 AccDes= 0.00D+00.
 NEqPCM:  Using equilibrium solvation (IEInf=0, Eps=  78.3553, EpsInf=   1.7778)
 G2PCM: DoFxE=T DoFxN=T DoGrad=T DoDP/DQ/DG/TGxP=FFFF NFrqRd=   0 IEInf=0 SqF1=F DoCFld=F IF1Alg=4.
 End of G2Drv F.D. properties file   721 does not exist.
 End of G2Drv F.D. properties file   722 does not exist.
 End of G2Drv F.D. properties file   788 does not exist.
          IDoAtm=11111111111111111111111111111111111
 NEqPCM:  Using equilibrium solvation (IEInf=0, Eps=  78.3553, EpsInf=   1.7778)
          Differentiating once with respect to nuclear coordinates.
 CalDSu exits because no D1Ps are significant.
          There are   108 degrees of freedom in the 1st order CPHF.  IDoFFX=6 NUNeed=     0.
    102 vectors produced by pass  0 Test12= 5.73D-14 1.00D-09 XBig12= 1.05D-01 1.48D-01.
 AX will form   102 AO Fock derivatives at one time.
    102 vectors produced by pass  1 Test12= 5.73D-14 1.00D-09 XBig12= 1.60D-02 2.59D-02.
    102 vectors produced by pass  2 Test12= 5.73D-14 1.00D-09 XBig12= 5.48D-04 3.82D-03.
    102 vectors produced by pass  3 Test12= 5.73D-14 1.00D-09 XBig12= 1.14D-05 4.53D-04.
    102 vectors produced by pass  4 Test12= 5.73D-14 1.00D-09 XBig12= 1.47D-07 4.20D-05.
    102 vectors produced by pass  5 Test12= 5.73D-14 1.00D-09 XBig12= 1.55D-09 4.76D-06.
    102 vectors produced by pass  6 Test12= 5.73D-14 1.00D-09 XBig12= 1.28D-11 2.88D-07.
     63 vectors produced by pass  7 Test12= 5.73D-14 1.00D-09 XBig12= 9.58D-14 2.42D-08.
     11 vectors produced by pass  8 Test12= 5.73D-14 1.00D-09 XBig12= 1.18D-14 8.07D-09.
      9 vectors produced by pass  9 Test12= 5.73D-14 1.00D-09 XBig12= 1.21D-14 6.78D-09.
      4 vectors produced by pass 10 Test12= 5.73D-14 1.00D-09 XBig12= 2.59D-15 3.24D-09.
      4 vectors produced by pass 11 Test12= 5.73D-14 1.00D-09 XBig12= 4.84D-15 5.13D-09.
      4 vectors produced by pass 12 Test12= 5.73D-14 1.00D-09 XBig12= 4.89D-15 7.23D-09.
      2 vectors produced by pass 13 Test12= 5.73D-14 1.00D-09 XBig12= 2.03D-15 2.51D-09.
 InvSVY:  IOpt=1 It=  1 EMax= 6.66D-16
 Solved reduced A of dimension   811 with   108 vectors.
 End of Minotr F.D. properties file   721 does not exist.
 End of Minotr F.D. properties file   722 does not exist.
 End of Minotr F.D. properties file   788 does not exist.

 **********************************************************************

            Population analysis using the SCF density.

 **********************************************************************

 Orbital symmetries:
       Occupied  (A) (A) (A) (A) (A) (A) (A) (A) (A) (A) (A) (A)
                 (A) (A) (A) (A) (A) (A) (A) (A) (A) (A) (A) (A)
                 (A) (A) (A) (A) (A) (A) (A) (A) (A) (A) (A) (A)
                 (A) (A) (A) (A) (A) (A) (A) (A) (A) (A) (A) (A)
                 (A) (A) (A) (A) (A) (A) (A) (A) (A) (A) (A) (A)
                 (A) (A) (A) (A) (A) (A) (A) (A) (A) (A) (A) (A)
                 (A) (A) (A) (A) (A) (A) (A) (A) (A) (A) (A) (A)
                 (A) (A) (A) (A) (A)
       Virtual   (A) (A) (A) (A) (A) (A) (A) (A) (A) (A) (A) (A)
                 (A) (A) (A) (A) (A) (A) (A) (A) (A) (A) (A) (A)
                 (A) (A) (A) (A) (A) (A) (A) (A) (A) (A) (A) (A)
                 (A) (A) (A) (A) (A) (A) (A) (A) (A) (A) (A) (A)
                 (A) (A) (A) (A) (A) (A) (A) (A) (A) (A) (A) (A)
                 (A) (A) (A) (A) (A) (A) (A) (A) (A) (A) (A) (A)
                 (A) (A) (A) (A) (A) (A) (A) (A) (A) (A) (A) (A)
                 (A) (A) (A) (A) (A) (A) (A) (A) (A) (A) (A) (A)
                 (A) (A) (A) (A) (A) (A) (A) (A) (A) (A) (A) (A)
                 (A) (A) (A) (A) (A) (A) (A) (A) (A) (A) (A) (A)
                 (A) (A) (A) (A) (A) (A) (A) (A) (A) (A) (A) (A)
                 (A) (A) (A) (A) (A) (A) (A) (A) (A) (A) (A) (A)
                 (A) (A) (A) (A) (A) (A) (A) (A) (A) (A) (A) (A)
                 (A) (A) (A) (A) (A) (A) (A) (A) (A) (A) (A) (A)
                 (A) (A) (A) (A) (A) (A) (A) (A) (A) (A) (A) (A)
                 (A) (A) (A) (A) (A) (A) (A) (A) (A) (A) (A) (A)
                 (A) (A) (A) (A) (A) (A) (A) (A) (A) (A) (A) (A)
                 (A) (A) (A) (A) (A) (A) (A) (A) (A) (A) (A) (A)
                 (A) (A) (A) (A) (A) (A) (A) (A) (A) (A) (A) (A)
                 (A) (A) (A) (A) (A) (A) (A) (A) (A) (A) (A) (A)
                 (A) (A) (A) (A) (A) (A) (A) (A) (A) (A) (A) (A)
                 (A) (A) (A) (A) (A) (A) (A) (A) (A) (A) (A) (A)
                 (A) (A) (A) (A) (A) (A) (A) (A) (A) (A) (A) (A)
                 (A) (A) (A) (A) (A) (A) (A) (A) (A) (A) (A) (A)
                 (A) (A) (A) (A) (A) (A) (A) (A) (A) (A) (A) (A)
                 (A) (A) (A) (A) (A) (A) (A) (A) (A) (A) (A) (A)
                 (A) (A) (A) (A) (A) (A) (A) (A) (A) (A) (A) (A)
                 (A) (A) (A) (A) (A) (A) (A) (A) (A) (A) (A) (A)
                 (A) (A) (A) (A) (A) (A) (A) (A) (A) (A) (A) (A)
                 (A) (A) (A) (A) (A) (A) (A) (A) (A) (A) (A) (A)
                 (A) (A) (A) (A) (A) (A) (A) (A) (A) (A) (A) (A)
                 (A) (A) (A) (A) (A) (A) (A) (A) (A) (A) (A) (A)
                 (A) (A) (A) (A) (A) (A) (A) (A) (A) (A) (A) (A)
                 (A) (A) (A) (A) (A) (A) (A) (A) (A) (A) (A) (A)
                 (A) (A) (A) (A) (A) (A) (A) (A) (A) (A) (A) (A)
                 (A) (A) (A) (A) (A) (A) (A) (A) (A) (A) (A) (A)
                 (A) (A) (A) (A) (A) (A) (A) (A) (A) (A) (A) (A)
                 (A) (A) (A) (A) (A) (A) (A) (A) (A) (A) (A) (A)
                 (A) (A) (A) (A) (A) (A) (A) (A) (A) (A) (A) (A)
                 (A) (A) (A) (A) (A) (A) (A) (A) (A) (A) (A) (A)
                 (A) (A) (A) (A) (A) (A) (A) (A) (A) (A) (A) (A)
                 (A) (A) (A) (A) (A) (A) (A) (A) (A) (A) (A) (A)
                 (A) (A) (A) (A) (A) (A) (A) (A) (A) (A) (A) (A)
                 (A) (A) (A) (A) (A) (A) (A) (A) (A) (A) (A) (A)
                 (A) (A) (A) (A) (A) (A) (A) (A) (A) (A) (A) (A)
                 (A) (A) (A) (A) (A) (A) (A) (A) (A) (A) (A) (A)
                 (A) (A) (A) (A) (A) (A) (A) (A) (A) (A) (A) (A)
                 (A) (A) (A) (A) (A) (A) (A) (A) (A) (A) (A) (A)
                 (A) (A) (A) (A) (A) (A) (A) (A) (A) (A) (A) (A)
                 (A) (A) (A) (A) (A) (A) (A) (A) (A) (A) (A) (A)
                 (A) (A) (A) (A) (A) (A) (A) (A) (A) (A) (A) (A)
                 (A) (A) (A) (A) (A) (A) (A) (A) (A) (A) (A) (A)
                 (A) (A) (A) (A) (A) (A) (A) (A) (A) (A) (A) (A)
                 (A) (A) (A) (A) (A) (A) (A) (A)
 The electronic state is 1-A.
 Alpha  occ. eigenvalues -- -483.12927-101.70604 -62.67744 -56.46860 -56.46510
 Alpha  occ. eigenvalues --  -56.46502 -19.22550 -14.48734 -10.41695 -10.37563
 Alpha  occ. eigenvalues --  -10.32081 -10.31895 -10.31704 -10.30009 -10.29959
 Alpha  occ. eigenvalues --  -10.29666 -10.29524 -10.29507 -10.29462 -10.29432
 Alpha  occ. eigenvalues --  -10.29402 -10.29351 -10.29242 -10.29225  -9.59193
 Alpha  occ. eigenvalues --   -8.81845  -7.33842  -7.32978  -7.32927  -6.63987
 Alpha  occ. eigenvalues --   -6.62866  -6.62844  -2.74379  -2.74051  -2.74034
 Alpha  occ. eigenvalues --   -2.73127  -2.73127  -1.13607  -1.04635  -0.99659
 Alpha  occ. eigenvalues --   -0.97029  -0.96451  -0.91616  -0.87647  -0.86388
 Alpha  occ. eigenvalues --   -0.85859  -0.85449  -0.81942  -0.79048  -0.75613
 Alpha  occ. eigenvalues --   -0.71675  -0.71194  -0.70771  -0.68166  -0.64951
 Alpha  occ. eigenvalues --   -0.63297  -0.61519  -0.59046  -0.57990  -0.57183
 Alpha  occ. eigenvalues --   -0.56486  -0.55333  -0.54401  -0.54202  -0.53717
 Alpha  occ. eigenvalues --   -0.52620  -0.51549  -0.51411  -0.51308  -0.48955
 Alpha  occ. eigenvalues --   -0.48101  -0.47748  -0.47049  -0.46713  -0.45555
 Alpha  occ. eigenvalues --   -0.44577  -0.44169  -0.43434  -0.42954  -0.41523
 Alpha  occ. eigenvalues --   -0.39962  -0.39238  -0.37561  -0.35502  -0.34349
 Alpha  occ. eigenvalues --   -0.33924  -0.33541  -0.32033  -0.28730
 Alpha virt. eigenvalues --    0.00882   0.02756   0.04666   0.04917   0.05259
 Alpha virt. eigenvalues --    0.07172   0.10203   0.11462   0.12598   0.13401
 Alpha virt. eigenvalues --    0.13969   0.14518   0.14883   0.15787   0.16875
 Alpha virt. eigenvalues --    0.17332   0.18139   0.18272   0.18654   0.19137
 Alpha virt. eigenvalues --    0.19657   0.19791   0.21087   0.21303   0.22130
 Alpha virt. eigenvalues --    0.23149   0.23523   0.23596   0.24600   0.24883
 Alpha virt. eigenvalues --    0.25886   0.26114   0.27058   0.27371   0.27619
 Alpha virt. eigenvalues --    0.28559   0.28745   0.29229   0.29457   0.30041
 Alpha virt. eigenvalues --    0.30336   0.30776   0.30918   0.31538   0.31952
 Alpha virt. eigenvalues --    0.32360   0.33010   0.33140   0.33829   0.34029
 Alpha virt. eigenvalues --    0.34267   0.34845   0.35391   0.35540   0.36495
 Alpha virt. eigenvalues --    0.36693   0.37384   0.37790   0.38475   0.38870
 Alpha virt. eigenvalues --    0.39364   0.40517   0.40770   0.41001   0.41429
 Alpha virt. eigenvalues --    0.42058   0.42811   0.43041   0.43173   0.43924
 Alpha virt. eigenvalues --    0.44574   0.44747   0.44993   0.46007   0.46776
 Alpha virt. eigenvalues --    0.47012   0.47508   0.47974   0.48166   0.48521
 Alpha virt. eigenvalues --    0.49034   0.49296   0.49665   0.49915   0.50545
 Alpha virt. eigenvalues --    0.51032   0.51247   0.52106   0.52451   0.52847
 Alpha virt. eigenvalues --    0.53141   0.53706   0.54114   0.54706   0.55041
 Alpha virt. eigenvalues --    0.55691   0.56491   0.56684   0.57292   0.57918
 Alpha virt. eigenvalues --    0.57971   0.58205   0.58723   0.59442   0.59803
 Alpha virt. eigenvalues --    0.60271   0.61010   0.61560   0.62360   0.63125
 Alpha virt. eigenvalues --    0.63837   0.64845   0.65748   0.66381   0.67968
 Alpha virt. eigenvalues --    0.68102   0.68676   0.69391   0.69887   0.71418
 Alpha virt. eigenvalues --    0.72142   0.73103   0.73275   0.73530   0.74202
 Alpha virt. eigenvalues --    0.74778   0.75579   0.75848   0.76608   0.77357
 Alpha virt. eigenvalues --    0.78194   0.78836   0.79067   0.79390   0.79851
 Alpha virt. eigenvalues --    0.80637   0.81452   0.81927   0.83531   0.83922
 Alpha virt. eigenvalues --    0.84752   0.84818   0.85467   0.85970   0.86984
 Alpha virt. eigenvalues --    0.87678   0.88595   0.89588   0.90833   0.91598
 Alpha virt. eigenvalues --    0.91855   0.92459   0.93034   0.94576   0.95221
 Alpha virt. eigenvalues --    0.95779   0.96195   0.96787   0.97410   0.98762
 Alpha virt. eigenvalues --    0.98984   0.99288   1.00916   1.01699   1.02300
 Alpha virt. eigenvalues --    1.03372   1.03813   1.05283   1.06746   1.07896
 Alpha virt. eigenvalues --    1.08677   1.09039   1.09269   1.10534   1.10640
 Alpha virt. eigenvalues --    1.11443   1.13156   1.13515   1.14321   1.15210
 Alpha virt. eigenvalues --    1.16296   1.17194   1.17499   1.19310   1.20497
 Alpha virt. eigenvalues --    1.22272   1.23354   1.23656   1.24261   1.25304
 Alpha virt. eigenvalues --    1.26660   1.26943   1.27695   1.28814   1.29012
 Alpha virt. eigenvalues --    1.30023   1.31078   1.31526   1.31970   1.32635
 Alpha virt. eigenvalues --    1.33425   1.33680   1.34237   1.34539   1.35321
 Alpha virt. eigenvalues --    1.36752   1.37063   1.37992   1.38375   1.39417
 Alpha virt. eigenvalues --    1.39781   1.41249   1.42233   1.42903   1.44060
 Alpha virt. eigenvalues --    1.44582   1.45235   1.47355   1.48905   1.49154
 Alpha virt. eigenvalues --    1.49908   1.51367   1.51579   1.52763   1.52860
 Alpha virt. eigenvalues --    1.53522   1.54555   1.55228   1.56142   1.56421
 Alpha virt. eigenvalues --    1.57400   1.57560   1.58792   1.59063   1.59316
 Alpha virt. eigenvalues --    1.60646   1.61165   1.61461   1.62541   1.63788
 Alpha virt. eigenvalues --    1.64358   1.65115   1.65271   1.66090   1.66766
 Alpha virt. eigenvalues --    1.67870   1.68723   1.69650   1.70370   1.71382
 Alpha virt. eigenvalues --    1.71416   1.72808   1.72816   1.73262   1.74203
 Alpha virt. eigenvalues --    1.74741   1.75414   1.75786   1.77012   1.77555
 Alpha virt. eigenvalues --    1.77701   1.78586   1.78909   1.79010   1.79809
 Alpha virt. eigenvalues --    1.80049   1.80983   1.81419   1.81842   1.82631
 Alpha virt. eigenvalues --    1.82866   1.83550   1.85477   1.86436   1.88369
 Alpha virt. eigenvalues --    1.89078   1.90454   1.91418   1.91737   1.92543
 Alpha virt. eigenvalues --    1.93550   1.94816   1.94900   1.95453   1.96162
 Alpha virt. eigenvalues --    1.97722   1.98117   1.99641   2.00366   2.00397
 Alpha virt. eigenvalues --    2.01475   2.02359   2.03544   2.04375   2.05363
 Alpha virt. eigenvalues --    2.06043   2.07159   2.08986   2.09547   2.10470
 Alpha virt. eigenvalues --    2.11917   2.12577   2.13390   2.14229   2.14844
 Alpha virt. eigenvalues --    2.15437   2.16039   2.16524   2.17417   2.18228
 Alpha virt. eigenvalues --    2.18690   2.20428   2.20881   2.21354   2.22755
 Alpha virt. eigenvalues --    2.23515   2.23885   2.25215   2.26853   2.27173
 Alpha virt. eigenvalues --    2.28194   2.28328   2.29370   2.29697   2.30395
 Alpha virt. eigenvalues --    2.31272   2.32234   2.32679   2.33805   2.34856
 Alpha virt. eigenvalues --    2.36578   2.37735   2.38066   2.39665   2.40686
 Alpha virt. eigenvalues --    2.42396   2.43893   2.44957   2.45084   2.47292
 Alpha virt. eigenvalues --    2.48319   2.49451   2.51188   2.52807   2.53782
 Alpha virt. eigenvalues --    2.54076   2.55475   2.55981   2.57207   2.58421
 Alpha virt. eigenvalues --    2.59202   2.59624   2.60973   2.62233   2.63184
 Alpha virt. eigenvalues --    2.63622   2.64598   2.66143   2.67826   2.68917
 Alpha virt. eigenvalues --    2.69057   2.69704   2.70469   2.71100   2.72210
 Alpha virt. eigenvalues --    2.72903   2.73085   2.74059   2.74429   2.74846
 Alpha virt. eigenvalues --    2.75722   2.76121   2.76341   2.77389   2.77596
 Alpha virt. eigenvalues --    2.78450   2.79273   2.79687   2.80418   2.80834
 Alpha virt. eigenvalues --    2.81177   2.82015   2.83831   2.84277   2.85158
 Alpha virt. eigenvalues --    2.85827   2.86328   2.86807   2.87103   2.87660
 Alpha virt. eigenvalues --    2.88632   2.89132   2.89356   2.90547   2.91319
 Alpha virt. eigenvalues --    2.92114   2.92552   2.93988   2.94398   2.95159
 Alpha virt. eigenvalues --    2.95232   2.95506   2.96203   2.97439   2.97915
 Alpha virt. eigenvalues --    2.98783   3.00204   3.01328   3.02104   3.03588
 Alpha virt. eigenvalues --    3.04460   3.06033   3.07237   3.09234   3.09598
 Alpha virt. eigenvalues --    3.11265   3.12246   3.13093   3.13533   3.15008
 Alpha virt. eigenvalues --    3.15897   3.17128   3.17753   3.18393   3.19496
 Alpha virt. eigenvalues --    3.20358   3.20845   3.21479   3.22491   3.22682
 Alpha virt. eigenvalues --    3.22752   3.23153   3.24151   3.24907   3.25849
 Alpha virt. eigenvalues --    3.26457   3.26724   3.28055   3.28360   3.28812
 Alpha virt. eigenvalues --    3.30031   3.30461   3.30937   3.32715   3.33283
 Alpha virt. eigenvalues --    3.34125   3.34805   3.34957   3.35859   3.36507
 Alpha virt. eigenvalues --    3.37640   3.38093   3.39424   3.40004   3.40172
 Alpha virt. eigenvalues --    3.41889   3.42604   3.43199   3.44237   3.44707
 Alpha virt. eigenvalues --    3.45226   3.46050   3.46630   3.47237   3.48079
 Alpha virt. eigenvalues --    3.48567   3.49167   3.49710   3.51325   3.51651
 Alpha virt. eigenvalues --    3.52309   3.53397   3.54149   3.54654   3.56442
 Alpha virt. eigenvalues --    3.57371   3.58093   3.58458   3.59206   3.59577
 Alpha virt. eigenvalues --    3.59911   3.60915   3.61501   3.62489   3.63651
 Alpha virt. eigenvalues --    3.64110   3.65062   3.66049   3.68264   3.69703
 Alpha virt. eigenvalues --    3.70172   3.70860   3.71701   3.74375   3.75038
 Alpha virt. eigenvalues --    3.76175   3.76943   3.78280   3.78540   3.79124
 Alpha virt. eigenvalues --    3.80888   3.82341   3.84459   3.84789   3.85446
 Alpha virt. eigenvalues --    3.88321   3.88397   3.90345   3.91670   3.92982
 Alpha virt. eigenvalues --    3.94082   3.97482   3.98456   3.99086   4.01458
 Alpha virt. eigenvalues --    4.03219   4.03669   4.04885   4.05818   4.09943
 Alpha virt. eigenvalues --    4.10459   4.11745   4.13931   4.15633   4.17064
 Alpha virt. eigenvalues --    4.17531   4.19642   4.20682   4.20830   4.22283
 Alpha virt. eigenvalues --    4.22901   4.22927   4.24928   4.25764   4.27352
 Alpha virt. eigenvalues --    4.28520   4.29512   4.30025   4.30422   4.30579
 Alpha virt. eigenvalues --    4.31890   4.32182   4.32930   4.34267   4.34328
 Alpha virt. eigenvalues --    4.36358   4.37772   4.38361   4.39146   4.41246
 Alpha virt. eigenvalues --    4.41937   4.42743   4.44347   4.44816   4.48031
 Alpha virt. eigenvalues --    4.48745   4.50116   4.50754   4.53543   4.55811
 Alpha virt. eigenvalues --    4.57597   4.59299   4.62641   4.63695   4.69074
 Alpha virt. eigenvalues --    4.70191   4.71645   4.74825   4.76812   4.77457
 Alpha virt. eigenvalues --    4.79365   4.80476   4.81124   4.83102   4.83905
 Alpha virt. eigenvalues --    4.86448   4.93741   4.95508   4.96446   4.97978
 Alpha virt. eigenvalues --    4.98633   5.00112   5.00844   5.03942   5.08533
 Alpha virt. eigenvalues --    5.10083   5.11925   5.15057   5.16491   5.17966
 Alpha virt. eigenvalues --    5.20533   5.25392   5.27625   5.30315   5.31372
 Alpha virt. eigenvalues --    5.32495   5.34119   5.34712   5.35241   5.39585
 Alpha virt. eigenvalues --    5.44903   5.47422   5.49860   5.52178   5.53109
 Alpha virt. eigenvalues --    5.56372   5.59583   5.60472   5.66720   5.76968
 Alpha virt. eigenvalues --    5.77211   5.85862   5.88457   6.24803   6.43232
 Alpha virt. eigenvalues --    6.58702   6.67970   6.73594   6.96848   7.18938
 Alpha virt. eigenvalues --    7.22100   7.84305  10.90596  10.94188  11.47068
 Alpha virt. eigenvalues --   22.14873  22.23417  22.50754  22.57228  22.69652
 Alpha virt. eigenvalues --   22.71329  22.73643  22.74988  22.84906  22.89672
 Alpha virt. eigenvalues --   22.93155  22.95782  23.00592  23.29323  23.36071
 Alpha virt. eigenvalues --   23.44118  25.87428  32.22459  44.20793
          Condensed to atoms (all electrons):
               1          2          3          4          5          6
     1  C    6.045472   0.088763  -0.151115   0.305762   0.009942   0.030170
     2  C    0.088763   5.173542   0.609097  -0.093893  -0.003836  -0.009630
     3  O   -0.151115   0.609097   8.043173  -0.016936   0.010250  -0.005537
     4  C    0.305762  -0.093893  -0.016936   5.255745  -0.042153  -0.020540
     5  C    0.009942  -0.003836   0.010250  -0.042153   4.852408   0.413383
     6  H    0.030170  -0.009630  -0.005537  -0.020540   0.413383   0.516452
     7  H   -0.004982   0.000698  -0.000488  -0.001033   0.420024  -0.021231
     8  H   -0.003868   0.000806   0.000806   0.004644   0.408242  -0.023351
     9  N   -0.045093   0.007109   0.000456   0.057695   0.234400  -0.037417
    10  H   -0.016445  -0.000245  -0.000108   0.005422  -0.014556  -0.003072
    11  H    0.009598  -0.000469  -0.000049  -0.006213  -0.023895   0.005729
    12  Cl  -0.072980  -0.000985  -0.000271   0.339645   0.002620   0.000789
    13  C   -0.077585  -0.004220  -0.013540   0.296949   0.018504  -0.000525
    14  C   -0.015571   0.004704   0.009016  -0.107828  -0.000708   0.000333
    15  C   -0.001179   0.002574  -0.002950   0.009496   0.000005  -0.000019
    16  C    0.001073  -0.000027   0.001617  -0.005980  -0.000125   0.000017
    17  C   -0.001924  -0.000324  -0.003304   0.009394   0.000710  -0.000145
    18  C    0.012210   0.003157   0.019266  -0.159349  -0.005429  -0.001394
    19  H   -0.002144   0.005575  -0.000275  -0.001801  -0.000014  -0.000014
    20  H   -0.000063   0.000002   0.000005  -0.000243  -0.000001  -0.000000
    21  H    0.000005  -0.000005  -0.000001   0.000095   0.000001   0.000000
    22  H   -0.000015   0.000010  -0.000023  -0.000310   0.000045  -0.000002
    23  H    0.001601   0.000391   0.000205  -0.012850  -0.005545   0.000420
    24  Br   0.288707  -0.073587   0.006531  -0.066811  -0.000138   0.000485
    25  C   -0.179273   0.221099  -0.105235   0.010534  -0.000513   0.001172
    26  C    0.026636  -0.093696   0.001671   0.001510  -0.000074   0.000135
    27  C   -0.008140   0.013228  -0.001214  -0.000384   0.000014  -0.000003
    28  C    0.002512  -0.007219   0.000842   0.000017  -0.000003   0.000001
    29  C   -0.006460   0.005173  -0.002001  -0.000018   0.000015   0.000010
    30  C    0.043260  -0.123782   0.032976  -0.000337  -0.000162   0.000291
    31  H    0.007330  -0.009960   0.000159   0.001288  -0.000011   0.000003
    32  H    0.000021  -0.000170   0.000006  -0.000003  -0.000000   0.000000
    33  H    0.000003   0.000041   0.000001   0.000000   0.000000  -0.000000
    34  H    0.000001  -0.000292  -0.000068   0.000001   0.000000  -0.000001
    35  H    0.002932  -0.001971   0.010606  -0.000137  -0.000029   0.000165
               7          8          9         10         11         12
     1  C   -0.004982  -0.003868  -0.045093  -0.016445   0.009598  -0.072980
     2  C    0.000698   0.000806   0.007109  -0.000245  -0.000469  -0.000985
     3  O   -0.000488   0.000806   0.000456  -0.000108  -0.000049  -0.000271
     4  C   -0.001033   0.004644   0.057695   0.005422  -0.006213   0.339645
     5  C    0.420024   0.408242   0.234400  -0.014556  -0.023895   0.002620
     6  H   -0.021231  -0.023351  -0.037417  -0.003072   0.005729   0.000789
     7  H    0.508178  -0.019549  -0.036111   0.005180  -0.005673   0.000094
     8  H   -0.019549   0.506596  -0.022339  -0.006045  -0.003849  -0.000292
     9  N   -0.036111  -0.022339   6.588193   0.348030   0.352119  -0.067182
    10  H    0.005180  -0.006045   0.348030   0.407988  -0.019703   0.004463
    11  H   -0.005673  -0.003849   0.352119  -0.019703   0.408948   0.004344
    12  Cl   0.000094  -0.000292  -0.067182   0.004463   0.004344  16.938613
    13  C    0.006010  -0.001090  -0.064085   0.005408  -0.003544  -0.073686
    14  C   -0.000577   0.000009   0.005491  -0.000682   0.000799   0.022123
    15  C    0.000149  -0.000005  -0.000176   0.000056  -0.000160  -0.002744
    16  C   -0.000211   0.000006   0.000257  -0.000027   0.000137   0.001424
    17  C    0.001237  -0.000025   0.001561   0.000120  -0.001141  -0.002383
    18  C   -0.001309   0.000912   0.040762  -0.000521  -0.006483   0.013099
    19  H   -0.000003   0.000002   0.000506  -0.000031  -0.000020   0.003426
    20  H    0.000001  -0.000000   0.000003   0.000000  -0.000001  -0.000014
    21  H   -0.000001   0.000000   0.000000  -0.000000   0.000000   0.000001
    22  H    0.000091  -0.000002  -0.000030   0.000003  -0.000045  -0.000000
    23  H   -0.001584  -0.000067   0.006635  -0.000233   0.002106  -0.000124
    24  Br  -0.000039   0.000418   0.000548   0.004886  -0.000194  -0.021244
    25  C    0.000091  -0.000004  -0.000173  -0.000228   0.000063   0.000347
    26  C    0.000002  -0.000002  -0.000074   0.000020   0.000001  -0.000207
    27  C   -0.000000  -0.000000  -0.000005  -0.000001   0.000000  -0.000018
    28  C    0.000000   0.000000   0.000001   0.000000  -0.000000   0.000002
    29  C   -0.000000   0.000000  -0.000001  -0.000000   0.000000  -0.000003
    30  C   -0.000021  -0.000010   0.000252   0.000008  -0.000007   0.000016
    31  H   -0.000000  -0.000000   0.000011   0.000002  -0.000000   0.000452
    32  H   -0.000000  -0.000000  -0.000000  -0.000000   0.000000  -0.000000
    33  H   -0.000000   0.000000   0.000000  -0.000000  -0.000000   0.000000
    34  H   -0.000000  -0.000000  -0.000000  -0.000000   0.000000  -0.000000
    35  H   -0.000007   0.000005   0.000036   0.000001  -0.000001   0.000000
              13         14         15         16         17         18
     1  C   -0.077585  -0.015571  -0.001179   0.001073  -0.001924   0.012210
     2  C   -0.004220   0.004704   0.002574  -0.000027  -0.000324   0.003157
     3  O   -0.013540   0.009016  -0.002950   0.001617  -0.003304   0.019266
     4  C    0.296949  -0.107828   0.009496  -0.005980   0.009394  -0.159349
     5  C    0.018504  -0.000708   0.000005  -0.000125   0.000710  -0.005429
     6  H   -0.000525   0.000333  -0.000019   0.000017  -0.000145  -0.001394
     7  H    0.006010  -0.000577   0.000149  -0.000211   0.001237  -0.001309
     8  H   -0.001090   0.000009  -0.000005   0.000006  -0.000025   0.000912
     9  N   -0.064085   0.005491  -0.000176   0.000257   0.001561   0.040762
    10  H    0.005408  -0.000682   0.000056  -0.000027   0.000120  -0.000521
    11  H   -0.003544   0.000799  -0.000160   0.000137  -0.001141  -0.006483
    12  Cl  -0.073686   0.022123  -0.002744   0.001424  -0.002383   0.013099
    13  C    5.443795   0.334055   0.060909  -0.123480   0.051024   0.058217
    14  C    0.334055   5.215496   0.371630   0.058798  -0.092442   0.082350
    15  C    0.060909   0.371630   5.053094   0.365601   0.046239  -0.132271
    16  C   -0.123480   0.058798   0.365601   5.027157   0.388095   0.075378
    17  C    0.051024  -0.092442   0.046239   0.388095   5.001726   0.367188
    18  C    0.058217   0.082350  -0.132271   0.075378   0.367188   5.429045
    19  H   -0.071846   0.450514  -0.052003   0.010727  -0.004584   0.015844
    20  H    0.015338  -0.063250   0.461359  -0.060192   0.012302  -0.004828
    21  H   -0.004204   0.012081  -0.059902   0.457675  -0.059757   0.013568
    22  H    0.015090  -0.004162   0.011529  -0.056832   0.452767  -0.056828
    23  H   -0.094473   0.005647  -0.001848   0.007367  -0.007263   0.449738
    24  Br   0.012080   0.001737  -0.000272   0.000035  -0.000042   0.000006
    25  C   -0.005144   0.001733   0.000343   0.000058  -0.000043  -0.001263
    26  C    0.000588   0.000038   0.000126  -0.000000   0.000007  -0.000162
    27  C   -0.000060   0.000051  -0.000027   0.000003  -0.000001   0.000004
    28  C    0.000005  -0.000001   0.000003  -0.000000   0.000000  -0.000000
    29  C   -0.000007   0.000033  -0.000003   0.000001  -0.000001   0.000001
    30  C   -0.000120  -0.000640   0.000042  -0.000022   0.000022   0.000050
    31  H   -0.000333   0.000120   0.000090  -0.000005   0.000006  -0.000041
    32  H    0.000001  -0.000003  -0.000000  -0.000000   0.000000  -0.000000
    33  H   -0.000000  -0.000000   0.000000  -0.000000   0.000000   0.000000
    34  H   -0.000000   0.000000  -0.000000   0.000000  -0.000000  -0.000000
    35  H    0.000038  -0.000041   0.000004  -0.000002   0.000003   0.000006
              19         20         21         22         23         24
     1  C   -0.002144  -0.000063   0.000005  -0.000015   0.001601   0.288707
     2  C    0.005575   0.000002  -0.000005   0.000010   0.000391  -0.073587
     3  O   -0.000275   0.000005  -0.000001  -0.000023   0.000205   0.006531
     4  C   -0.001801  -0.000243   0.000095  -0.000310  -0.012850  -0.066811
     5  C   -0.000014  -0.000001   0.000001   0.000045  -0.005545  -0.000138
     6  H   -0.000014  -0.000000   0.000000  -0.000002   0.000420   0.000485
     7  H   -0.000003   0.000001  -0.000001   0.000091  -0.001584  -0.000039
     8  H    0.000002  -0.000000   0.000000  -0.000002  -0.000067   0.000418
     9  N    0.000506   0.000003   0.000000  -0.000030   0.006635   0.000548
    10  H   -0.000031   0.000000  -0.000000   0.000003  -0.000233   0.004886
    11  H   -0.000020  -0.000001   0.000000  -0.000045   0.002106  -0.000194
    12  Cl   0.003426  -0.000014   0.000001  -0.000000  -0.000124  -0.021244
    13  C   -0.071846   0.015338  -0.004204   0.015090  -0.094473   0.012080
    14  C    0.450514  -0.063250   0.012081  -0.004162   0.005647   0.001737
    15  C   -0.052003   0.461359  -0.059902   0.011529  -0.001848  -0.000272
    16  C    0.010727  -0.060192   0.457675  -0.056832   0.007367   0.000035
    17  C   -0.004584   0.012302  -0.059757   0.452767  -0.007263  -0.000042
    18  C    0.015844  -0.004828   0.013568  -0.056828   0.449738   0.000006
    19  H    0.490577  -0.006705  -0.000034   0.000009   0.000048  -0.000442
    20  H   -0.006705   0.507977  -0.006916  -0.000042   0.000034  -0.000003
    21  H   -0.000034  -0.006916   0.507875  -0.006682  -0.000114   0.000000
    22  H    0.000009  -0.000042  -0.006682   0.506340  -0.006596  -0.000000
    23  H    0.000048   0.000034  -0.000114  -0.006596   0.517837  -0.000011
    24  Br  -0.000442  -0.000003   0.000000  -0.000000  -0.000011  34.958217
    25  C   -0.002244   0.000003  -0.000001  -0.000000   0.000023   0.012807
    26  C    0.001497  -0.000001  -0.000000   0.000000  -0.000001  -0.017059
    27  C    0.000019  -0.000002   0.000000  -0.000000   0.000000   0.003978
    28  C    0.000008   0.000000  -0.000000   0.000000  -0.000000  -0.000658
    29  C   -0.000012  -0.000000   0.000000  -0.000000   0.000000   0.001872
    30  C    0.000083   0.000001  -0.000000   0.000000  -0.000002  -0.001225
    31  H    0.001319  -0.000001  -0.000000   0.000000  -0.000000  -0.000749
    32  H   -0.000004   0.000000   0.000000  -0.000000   0.000000   0.000047
    33  H   -0.000000   0.000000  -0.000000   0.000000  -0.000000  -0.000001
    34  H   -0.000000  -0.000000   0.000000  -0.000000   0.000000   0.000020
    35  H    0.000001   0.000000  -0.000000   0.000000  -0.000001  -0.000145
              25         26         27         28         29         30
     1  C   -0.179273   0.026636  -0.008140   0.002512  -0.006460   0.043260
     2  C    0.221099  -0.093696   0.013228  -0.007219   0.005173  -0.123782
     3  O   -0.105235   0.001671  -0.001214   0.000842  -0.002001   0.032976
     4  C    0.010534   0.001510  -0.000384   0.000017  -0.000018  -0.000337
     5  C   -0.000513  -0.000074   0.000014  -0.000003   0.000015  -0.000162
     6  H    0.001172   0.000135  -0.000003   0.000001   0.000010   0.000291
     7  H    0.000091   0.000002  -0.000000   0.000000  -0.000000  -0.000021
     8  H   -0.000004  -0.000002  -0.000000   0.000000   0.000000  -0.000010
     9  N   -0.000173  -0.000074  -0.000005   0.000001  -0.000001   0.000252
    10  H   -0.000228   0.000020  -0.000001   0.000000  -0.000000   0.000008
    11  H    0.000063   0.000001   0.000000  -0.000000   0.000000  -0.000007
    12  Cl   0.000347  -0.000207  -0.000018   0.000002  -0.000003   0.000016
    13  C   -0.005144   0.000588  -0.000060   0.000005  -0.000007  -0.000120
    14  C    0.001733   0.000038   0.000051  -0.000001   0.000033  -0.000640
    15  C    0.000343   0.000126  -0.000027   0.000003  -0.000003   0.000042
    16  C    0.000058  -0.000000   0.000003  -0.000000   0.000001  -0.000022
    17  C   -0.000043   0.000007  -0.000001   0.000000  -0.000001   0.000022
    18  C   -0.001263  -0.000162   0.000004  -0.000000   0.000001   0.000050
    19  H   -0.002244   0.001497   0.000019   0.000008  -0.000012   0.000083
    20  H    0.000003  -0.000001  -0.000002   0.000000  -0.000000   0.000001
    21  H   -0.000001  -0.000000   0.000000  -0.000000   0.000000  -0.000000
    22  H   -0.000000   0.000000  -0.000000   0.000000  -0.000000   0.000000
    23  H    0.000023  -0.000001   0.000000  -0.000000   0.000000  -0.000002
    24  Br   0.012807  -0.017059   0.003978  -0.000658   0.001872  -0.001225
    25  C    5.424284   0.332061   0.029239  -0.105500   0.046748   0.277524
    26  C    0.332061   5.192403   0.385289   0.047706  -0.087604   0.051257
    27  C    0.029239   0.385289   5.017030   0.394080   0.031315  -0.085419
    28  C   -0.105500   0.047706   0.394080   5.006351   0.389609   0.042358
    29  C    0.046748  -0.087604   0.031315   0.389609   5.026507   0.388160
    30  C    0.277524   0.051257  -0.085419   0.042358   0.388160   5.187206
    31  H   -0.061565   0.449169  -0.044512   0.009001  -0.003323   0.009880
    32  H    0.012860  -0.058620   0.454629  -0.054769   0.010273  -0.003385
    33  H   -0.003721   0.011317  -0.055784   0.451772  -0.055563   0.010951
    34  H    0.014945  -0.004569   0.011567  -0.057834   0.458738  -0.061552
    35  H   -0.082567   0.013975  -0.005168   0.012725  -0.054158   0.464621
              31         32         33         34         35
     1  C    0.007330   0.000021   0.000003   0.000001   0.002932
     2  C   -0.009960  -0.000170   0.000041  -0.000292  -0.001971
     3  O    0.000159   0.000006   0.000001  -0.000068   0.010606
     4  C    0.001288  -0.000003   0.000000   0.000001  -0.000137
     5  C   -0.000011  -0.000000   0.000000   0.000000  -0.000029
     6  H    0.000003   0.000000  -0.000000  -0.000001   0.000165
     7  H   -0.000000  -0.000000  -0.000000  -0.000000  -0.000007
     8  H   -0.000000  -0.000000   0.000000  -0.000000   0.000005
     9  N    0.000011  -0.000000   0.000000  -0.000000   0.000036
    10  H    0.000002  -0.000000  -0.000000  -0.000000   0.000001
    11  H   -0.000000   0.000000  -0.000000   0.000000  -0.000001
    12  Cl   0.000452  -0.000000   0.000000  -0.000000   0.000000
    13  C   -0.000333   0.000001  -0.000000  -0.000000   0.000038
    14  C    0.000120  -0.000003  -0.000000   0.000000  -0.000041
    15  C    0.000090  -0.000000   0.000000  -0.000000   0.000004
    16  C   -0.000005  -0.000000  -0.000000   0.000000  -0.000002
    17  C    0.000006   0.000000   0.000000  -0.000000   0.000003
    18  C   -0.000041  -0.000000   0.000000  -0.000000   0.000006
    19  H    0.001319  -0.000004  -0.000000  -0.000000   0.000001
    20  H   -0.000001   0.000000   0.000000  -0.000000   0.000000
    21  H   -0.000000   0.000000  -0.000000   0.000000  -0.000000
    22  H    0.000000  -0.000000   0.000000  -0.000000   0.000000
    23  H   -0.000000   0.000000  -0.000000   0.000000  -0.000001
    24  Br  -0.000749   0.000047  -0.000001   0.000020  -0.000145
    25  C   -0.061565   0.012860  -0.003721   0.014945  -0.082567
    26  C    0.449169  -0.058620   0.011317  -0.004569   0.013975
    27  C   -0.044512   0.454629  -0.055784   0.011567  -0.005168
    28  C    0.009001  -0.054769   0.451772  -0.057834   0.012725
    29  C   -0.003323   0.010273  -0.055563   0.458738  -0.054158
    30  C    0.009880  -0.003385   0.010951  -0.061552   0.464621
    31  H    0.480815  -0.005888  -0.000055   0.000017   0.000010
    32  H   -0.005888   0.507282  -0.006532  -0.000056   0.000019
    33  H   -0.000055  -0.006532   0.507469  -0.006621  -0.000036
    34  H    0.000017  -0.000056  -0.006621   0.509015  -0.007266
    35  H    0.000010   0.000019  -0.000036  -0.007266   0.503682
 Mulliken charges:
               1
     1  C   -0.289164
     2  C    0.288342
     3  O   -0.443569
     4  C    0.238622
     5  C   -0.273373
     6  H    0.153329
     7  H    0.151065
     8  H    0.158054
     9  N   -0.371380
    10  H    0.280307
    11  H    0.287604
    12  Cl  -0.089325
    13  C    0.219933
    14  C   -0.290852
    15  C   -0.129691
    16  C   -0.148521
    17  C   -0.159023
    18  C   -0.210922
    19  H    0.162023
    20  H    0.145238
    21  H    0.146315
    22  H    0.145686
    23  H    0.138658
    24  Br  -0.109754
    25  C    0.161541
    26  C   -0.253337
    27  C   -0.139708
    28  C   -0.131009
    29  C   -0.149299
    30  C   -0.232274
    31  H    0.166774
    32  H    0.144295
    33  H    0.146760
    34  H    0.143956
    35  H    0.142700
 Sum of Mulliken charges =  -0.00000
 Mulliken charges with hydrogens summed into heavy atoms:
               1
     1  C   -0.289164
     2  C    0.288342
     3  O   -0.443569
     4  C    0.238622
     5  C    0.189074
     9  N    0.196531
    12  Cl  -0.089325
    13  C    0.219933
    14  C   -0.128829
    15  C    0.015547
    16  C   -0.002206
    17  C   -0.013337
    18  C   -0.072265
    24  Br  -0.109754
    25  C    0.161541
    26  C   -0.086563
    27  C    0.004587
    28  C    0.015751
    29  C   -0.005344
    30  C   -0.089574
 APT charges:
               1
     1  C   -0.500630
     2  C    0.124337
     3  O   -0.185295
     4  C   -0.020502
     5  C   -0.986628
     6  H    0.006556
     7  H    0.344069
     8  H    0.765452
     9  N   -1.060590
    10  H    0.512983
    11  H    0.837434
    12  Cl   0.223545
    13  C   -0.209762
    14  C   -0.549680
    15  C   -0.535644
    16  C   -0.651806
    17  C   -0.697382
    18  C   -0.660043
    19  H    0.139240
    20  H    0.660384
    21  H    1.066618
    22  H    0.945412
    23  H    0.438488
    24  Br   0.097849
    25  C   -0.510569
    26  C   -0.467747
    27  C   -0.596567
    28  C   -0.666210
    29  C   -0.654879
    30  C   -0.526902
    31  H    0.131955
    32  H    0.744009
    33  H    1.153295
    34  H    0.951400
    35  H    0.337808
 Sum of APT charges =  -0.00000
 APT charges with hydrogens summed into heavy atoms:
               1
     1  C   -0.500630
     2  C    0.124337
     3  O   -0.185295
     4  C   -0.020502
     5  C    0.129450
     9  N    0.289827
    12  Cl   0.223545
    13  C   -0.209762
    14  C   -0.410440
    15  C    0.124739
    16  C    0.414813
    17  C    0.248030
    18  C   -0.221555
    24  Br   0.097849
    25  C   -0.510569
    26  C   -0.335792
[...]
 62496,0.01311654,0.00242712,-0.00204287,-0.00401246,-0.00213565,-0.000
 39112,0.00071779,0.00013169,0.00020993,0.00015665,-0.00001539,-0.00005
 918,0.00007064,-0.00001898,-0.00002485,-0.00000444,-0.00002554,-0.0000
 2038,-0.00009334,0.00083876,0.00064721,-0.00086650,-0.00000386,-0.0000
 8434,0.00000666,-0.00004711,0.00012468,-0.00019901,0.00036966,0.000229
 78,0.00021080,-0.00003402,0.00017351,-0.00009322,0.00012546,-0.0000361
 8,0.00000600,-0.00001119,0.00000899,0.00000798,0.00003642,-0.00004801,
 -0.00001091,0.00001697,-0.00001628,-0.00000718,0.00003470,-0.00004043,
 0.00007261,-0.00000484,0.00003037,-0.00005354,0.00000511,-0.00002347,0
 .00000885,0.00001087,-0.00001157,0.00000172,0.00001854,-0.00001796,-0.
 00000644,-0.00002358,0.00002736,-0.00000133,0.00061459,0.00105333,0.00
 003214,-0.11884925,-0.05277428,-0.24641727,0.00543215,-0.00483329,-0.0
 5558783,-0.02444309,-0.00688467,-0.01003902,0.03688477,0.01065054,0.01
 867254,0.06980413,0.01298182,-0.13882260,-0.04466316,0.04589095,0.7294
 4345,0.00087498,-0.00019499,-0.00018000,0.00007795,0.00145789,0.000660
 98,0.00009526,-0.00021539,0.00004064,-0.00079475,-0.00030063,0.0002338
 9,0.00005090,0.00007933,0.00005613,-0.00001008,-0.00001842,0.00001408,
 -0.00000174,-0.00000962,-0.00000415,-0.00001381,-0.00001009,-0.0000300
 9,0.00028879,0.00025529,-0.00032936,0.00002357,-0.00001915,-0.00001916
 ,-0.00001753,0.00004400,-0.00006247,0.00006705,0.00007815,0.00001871,0
 .00000541,0.00003506,-0.00004532,-0.00002668,-0.00000775,0.00008128,0.
 00002671,0.00001217,-0.00001974,0.00001356,-0.00002002,-0.00000280,0.0
 0001024,-0.00000846,-0.00000497,0.00000709,-0.00000028,0.00001136,-0.0
 0028185,0.00007133,-0.00008284,0.00000303,-0.00000750,0.00000411,0.000
 00565,-0.00000508,-0.00000295,0.00000627,-0.00000485,-0.00000223,-0.00
 000311,0.00000772,-0.00000284,-0.00032029,-0.00058531,0.00052722,0.009
 86314,0.00243127,0.00907328,-0.15842472,-0.04405755,-0.12833175,-0.012
 60687,-0.00676725,-0.02459821,-0.00404612,-0.00323505,0.00250065,-0.00
 042615,0.00020646,0.00067889,0.00028202,-0.00176685,0.00275840,0.16494
 343,-0.00062047,-0.00003001,0.00023054,-0.00076396,-0.00374700,0.00074
 802,0.00134437,-0.00011567,-0.00099073,0.00001946,-0.00011965,-0.00009
 772,0.00000279,0.00001234,0.00000764,-0.00000164,-0.00000950,-0.000000
 60,-0.00000636,0.00000036,0.00000197,-0.00000110,0.00000192,-0.0000092
 5,0.00007541,0.00007780,-0.00009289,-0.00000639,-0.00000719,0.00000445
 ,-0.00000389,0.00000901,-0.00001300,-0.00003404,-0.00005392,-0.0000259
 3,-0.00001494,0.00003182,-0.00000233,0.00001279,-0.00003759,-0.0000188
 1,-0.00000141,0.00000050,0.00000970,-0.00000134,-0.00000803,-0.0000008
 2,-0.00000190,0.00000466,0.00000112,0.00001399,-0.00000983,0.00001606,
 0.00014714,-0.00005915,0.00002090,-0.00000020,-0.00000375,-0.00000123,
 0.00000065,0.00000002,0.00000183,0.00000115,-0.00000164,-0.00000057,-0
 .00000562,0.00000195,0.00000147,-0.00020701,-0.00061949,0.00066720,0.0
 0156295,0.00386385,0.00032445,-0.04546273,-0.05602622,-0.05156353,-0.0
 0372762,0.00259938,-0.00664154,-0.00329736,0.00672975,-0.00017512,-0.0
 0013967,-0.00094083,0.00059078,-0.00121733,0.00649320,-0.00003105,0.05
 086566,0.04671076,-0.00001551,-0.00024260,0.00027493,-0.00190585,0.000
 04498,0.00025691,0.00033602,-0.00011043,-0.00014104,0.00108956,0.00053
 182,-0.00023537,-0.00007022,-0.00008351,-0.00007025,0.00001697,0.00000
 619,-0.00003028,-0.00000775,0.00000874,0.00000934,0.00002110,0.0000141
 2,0.00003698,-0.00035750,-0.00027433,0.00038219,0.00002369,0.00003227,
 -0.00000911,0.00001030,-0.00004249,0.00008247,-0.00005119,-0.00005784,
 -0.00000495,-0.00000571,-0.00006511,0.00001131,-0.00001733,0.00000729,
 -0.00003559,-0.00001309,0.00000203,0.00001281,-0.00000975,0.00001887,0
 .00000241,-0.00001318,0.00000710,0.00000720,-0.00000842,0.00002360,0.0
 0000012,0.00009672,-0.00004166,0.00005951,-0.00000250,0.00000899,-0.00
 000428,-0.00000666,0.00000448,0.00000042,-0.00000772,0.00000579,0.0000
 0164,0.00000443,-0.00001109,0.00000322,-0.00026475,0.00037709,0.000075
 91,-0.01856745,-0.00728693,-0.01747924,-0.12808807,-0.05192770,-0.2251
 7663,0.00532574,0.00205198,0.00819617,0.00185788,-0.00008031,0.0012902
 1,0.00092367,0.00036020,-0.00014504,0.00333744,-0.00015898,-0.00416218
 ,0.13768466,0.05680050,0.23676376,-0.00059121,-0.00007386,-0.00016537,
 0.00128625,0.00017287,0.00116376,-0.00082422,0.00033020,0.00020306,0.0
 0045521,0.00013317,-0.00016793,-0.00001387,-0.00003536,-0.00001912,0.0
 0000035,0.00001381,-0.00001555,0.00000282,0.00000303,-0.00000030,0.000
 00213,0.00000179,0.00001625,-0.00013121,-0.00010045,0.00013437,-0.0000
 0049,0.00001294,0.00000099,0.00000721,-0.00001980,0.00003115,-0.000078
 30,-0.00007204,-0.00002723,0.00002431,-0.00003018,0.00001084,-0.000028
 98,0.00000753,-0.00000707,0.00000522,-0.00000573,-0.00000246,-0.000007
 97,0.00000948,0.00000439,-0.00000252,0.00000353,-0.00000010,-0.0000057
 1,0.00000320,-0.00001566,0.00000493,-0.00000498,0.00001295,-0.00000147
 ,0.00000471,-0.00000224,-0.00000205,0.00000230,-0.00000012,-0.00000349
 ,0.00000317,0.00000106,0.00000459,-0.00000406,0.00000104,0.00000999,0.
 00000983,0.00000747,-0.00485665,-0.00377711,0.00066075,-0.00563619,-0.
 00044210,0.02925595,-0.09316577,-0.00778201,0.09267998,0.01082475,0.00
 048976,-0.01922410,-0.00126689,-0.00268833,-0.00308723,-0.00111024,-0.
 00007599,-0.00064278,0.00074890,0.00139538,-0.00051266,0.09343282,-0.0
 0015174,-0.00005241,-0.00000618,0.00021736,0.00028298,0.00030711,-0.00
 044564,0.00001064,0.00006927,0.00007487,0.00001876,-0.00002532,-0.0000
 0318,-0.00000567,-0.00000230,-0.00000058,0.00000264,-0.00000259,0.0000
 0083,0.00000033,-0.00000034,0.00000063,-0.00000004,0.00000309,-0.00002
 387,-0.00001913,0.00002437,-0.00000075,0.00000244,0.00000076,0.0000010
 2,-0.00000361,0.00000557,-0.00001235,-0.00000920,-0.00000531,0.0000028
 6,-0.00000554,0.00000153,-0.00000297,0.00000190,0.00000287,-0.00000025
 ,-0.00000117,-0.00000195,-0.00000072,0.00000251,0.00000105,-0.00000044
 ,-0.00000155,-0.00000076,-0.00000293,0.00000061,-0.00000287,-0.0000026
 3,-0.00000128,-0.00000069,0.00000047,0.00000085,0.00000008,-0.00000021
 ,0.00000051,-0.00000015,-0.00000068,0.00000066,0.00000032,0.00000074,-
 0.00000079,0.00000025,0.00001269,-0.00000264,0.00000652,-0.00342448,0.
 00645508,-0.00033855,-0.00268045,0.00358404,0.00790952,-0.00776849,-0.
 04041878,0.00526297,0.00281609,0.00385999,-0.00713598,-0.00282269,0.00
 669181,-0.00155247,0.00016871,-0.00104456,-0.00022572,0.00149610,-0.00
 386077,0.00030343,0.01087808,0.02926434,0.00036198,0.00010458,0.000040
 53,-0.00084394,-0.00030717,-0.00000116,0.00037270,-0.00000583,-0.00017
 110,-0.00030020,-0.00009494,0.00010211,0.00001130,0.00002473,0.0000142
 7,-0.00000027,-0.00000959,0.00001016,-0.00000254,-0.00000236,0.0000001
 5,-0.00000174,-0.00000105,-0.00001106,0.00009286,0.00007213,-0.0000958
 2,-0.00000079,-0.00000927,-0.00000012,-0.00000495,0.00001374,-0.000021
 48,0.00004751,0.00003815,0.00001568,-0.00001082,0.00002080,-0.00000712
 ,0.00001646,-0.00000478,0.00000204,-0.00000181,0.00000283,0.00000129,0
 .00000480,-0.00000640,-0.00000250,0.00000234,-0.00000228,-0.00000001,0
 .00000329,-0.00000354,0.00000938,-0.00000480,0.00000489,-0.00000794,0.
 00000064,-0.00000330,0.00000121,0.00000151,-0.00000155,0.00000015,0.00
 000242,-0.00000214,-0.00000075,-0.00000294,0.00000307,-0.00000055,0.00
 002591,0.00003828,-0.00000821,0.00092043,-0.00013668,0.00181504,-0.000
 84246,-0.00059453,-0.00080038,0.09278352,0.00521575,-0.30838049,0.0110
 5249,0.00148585,-0.01702119,-0.00361095,-0.00168486,-0.00176740,-0.000
 67114,-0.00008090,0.00036734,0.00015935,0.00044659,0.00069226,-0.09990
 891,-0.00496529,0.32532442,-0.00022185,-0.00009370,-0.00001425,0.00039
 037,0.00045157,-0.00005563,-0.00029171,-0.00000285,0.00009447,0.000240
 25,0.00008309,-0.00006992,-0.00000932,-0.00001977,-0.00001247,0.000001
 97,0.00000809,-0.00000868,0.00000155,0.00000177,0.00000006,0.00000173,
 0.00000110,0.00000947,-0.00008089,-0.00006146,0.00008216,0.00000228,0.
 00000824,-0.00000101,0.00000391,-0.00001132,0.00001861,-0.00003065,-0.
 00002429,-0.00001054,0.00000762,-0.00001742,0.00000657,-0.00001215,0.0
 0000392,-0.00000485,0.00000120,-0.00000226,0.,-0.00000404,0.00000528,0
 .00000202,-0.00000204,0.00000213,0.00000031,-0.00000294,0.00000302,-0.
 00000728,0.00000669,-0.00000447,0.00000859,-0.00000054,0.00000241,-0.0
 0000123,-0.00000142,0.00000135,-0.00000009,-0.00000208,0.00000176,0.00
 000066,0.00000239,-0.00000258,0.00000054,-0.00003453,-0.00003072,0.000
 01609,0.00033470,0.00030721,-0.00042267,0.00014235,-0.00226659,-0.0032
 8223,-0.01290470,-0.00405726,0.00616072,-0.31650434,-0.07125477,0.0461
 3057,-0.00597388,-0.00277650,-0.00107794,0.00164880,-0.00145075,0.0022
 2662,-0.00075755,-0.00019142,0.00031918,0.00053106,0.00125371,-0.00025
 224,0.33350552,-0.00029061,-0.00001936,-0.00001372,0.00028075,-0.00108
 118,0.00008449,0.00017757,0.00004144,-0.00014678,0.00017858,0.00005136
 ,-0.00008036,-0.00000752,-0.00001492,-0.00000997,-0.00000100,0.0000019
 9,-0.00000420,-0.00000052,0.00000208,0.00000108,0.00000141,0.00000189,
 0.00000504,-0.00003962,-0.00003374,0.00004707,-0.00000097,0.00000424,0
 .00000122,0.00000257,-0.00000569,0.00000935,-0.00003817,-0.00003371,-0
 .00001094,0.00000267,-0.00000963,-0.00000057,-0.00000456,-0.00000106,0
 .00000144,0.00000052,0.00000060,-0.00000107,-0.00000178,0.00000181,0.0
 0000033,-0.00000094,0.00000140,0.00000059,-0.00000024,0.00000251,-0.00
 000136,0.00000449,-0.00000169,0.00000281,-0.00000013,0.00000136,-0.000
 00021,-0.00000042,0.00000061,-0.00000002,-0.00000113,0.00000087,0.0000
 0017,0.00000077,-0.00000138,0.00000032,-0.00000283,0.00004228,-0.00000
 183,0.00037555,-0.00082827,0.00033992,-0.00236476,0.00686290,-0.001841
 87,-0.00663319,0.00226492,0.00200137,-0.07126962,-0.05771834,0.0103382
 3,-0.00017926,0.00383052,-0.00063121,-0.00138478,0.00722237,-0.0006275
 6,-0.00027368,-0.00009882,0.00005119,0.00132643,-0.00380387,0.00031105
 ,0.07898826,0.04718593,0.00006687,0.00000889,0.00001468,-0.00003764,-0
 .00000624,0.00004113,0.00002759,0.00007779,0.00009132,0.00000153,0.000
 01137,0.00000585,-0.00000214,0.00000007,-0.00000077,0.00000004,-0.0000
 0269,0.00000039,-0.00000086,0.00000005,0.00000045,0.00000113,0.0000005
 7,-0.00000019,0.00000125,-0.00000002,0.00000124,0.00000146,-0.00000023
 ,-0.00000068,-0.00000038,0.00000091,-0.00000029,0.00000375,0.00000364,
 0.00000250,-0.00000115,0.00000066,-0.00000119,0.00000354,-0.00000076,-
 0.00000028,-0.00000128,0.00000054,0.00000020,0.00000074,-0.00000023,-0
 .00000033,-0.00000032,-0.00000033,0.00000051,-0.00000010,0.00000067,0.
 00000199,0.00000569,-0.00000140,0.00000128,0.,-0.00000012,0.00000001,-
 0.00000002,-0.00000005,0.00000009,0.00000007,-0.00000010,-0.00000006,-
 0.00000035,0.00000011,0.00000012,-0.00002237,0.00000116,0.00000619,-0.
 00025249,-0.00016570,-0.00130321,-0.00284178,-0.00165139,-0.00328841,-
 0.02422251,-0.00616386,0.00856784,0.04617511,0.01024466,-0.06854480,0.
 02924010,0.00765970,0.00017803,0.00170145,-0.00061622,-0.00508954,-0.0
 0115399,-0.00033298,0.00024265,0.00049838,0.00054996,0.00093713,-0.049
 91829,-0.01023099,0.06722712,-0.00092824,-0.00021721,0.00004698,0.0007
 9574,-0.00023877,-0.00149148,-0.00034867,0.00014378,0.00028617,0.00049
 877,0.00008479,-0.00015651,-0.00002238,-0.00004672,-0.00002945,0.00000
 143,0.00001661,-0.00001721,0.00000342,0.00000486,0.00000048,0.00000347
 ,0.00000377,0.00002102,-0.00018448,-0.00013296,0.00017789,-0.00000102,
 0.00001784,0.00000010,0.00000973,-0.00002821,0.00004394,-0.00008125,-0
 .00006043,-0.00004025,0.00002028,-0.00003914,0.00001813,-0.00002802,0.
 00001052,-0.00000533,0.00000255,-0.00000227,-0.00000053,-0.00000804,0.
 00001111,0.00000303,-0.00000391,0.00000360,0.00000104,-0.00000704,0.00
 000846,-0.00001560,0.00000289,-0.00000799,0.00001366,-0.00000119,0.000
 00513,-0.00000230,-0.00000278,0.00000255,-0.00000054,-0.00000423,0.000
 00381,0.00000138,0.00000530,-0.00000601,0.00000048,-0.00000894,-0.0000
 2781,-0.00000409,-0.00475697,-0.00269937,0.00206862,-0.00056396,0.0002
 0841,0.00097172,0.00062898,-0.00165272,0.00282698,0.01072249,0.0028028
 1,0.01052997,-0.16049179,-0.04361769,-0.12967281,-0.01276686,-0.006575
 85,-0.02471906,-0.00004001,0.00028123,-0.00015567,0.00035347,0.0001203
 2,0.00052821,0.00041521,0.00119401,-0.00064144,0.16592830,-0.00016389,
 -0.00000637,0.00000097,0.00006240,0.00018408,-0.00042171,0.00004751,-0
 .00003469,0.00011017,0.00015017,0.00004421,-0.00006642,-0.00000930,-0.
 00001520,-0.00000864,0.00000334,0.00000700,-0.00000524,0.00000138,0.00
 000185,0.00000024,0.00000154,0.00000042,0.00000539,-0.00004550,-0.0000
 4343,0.00005946,-0.00000097,0.00000411,0.00000109,0.00000358,-0.000006
 29,0.00000905,-0.00001602,-0.00001605,-0.00000415,0.00000096,-0.000012
 40,0.00000591,-0.00000711,0.00000153,0.00000121,0.00000280,-0.00000186
 ,-0.00000222,-0.00000328,0.00000137,0.00000188,-0.00000155,0.00000336,
 -0.00000002,-0.00000030,0.00000052,-0.00000431,0.00000309,-0.00000113,
 0.00000342,-0.00000026,0.00000138,-0.00000030,-0.00000039,0.00000081,0
 .00000015,-0.00000117,0.00000106,0.00000031,0.00000159,-0.00000135,0.0
 0000047,-0.00000113,-0.00009436,0.00001464,-0.00289541,0.00689920,0.00
 016243,0.00015735,-0.00091421,0.00019253,-0.00161251,0.00717888,-0.000
 33343,0.00009831,0.00383937,0.00113819,-0.04353086,-0.05485501,-0.0506
 9642,-0.00414844,0.00211540,-0.00627087,0.00032923,-0.00106618,0.00006
 821,-0.00001945,0.00006822,0.00003951,0.00126984,-0.00385320,0.0002652
 4,0.04908895,0.04449671,-0.00009285,-0.00001104,-0.00005481,0.00054897
 ,0.00022662,0.00024808,-0.00022434,-0.00003753,0.00003282,0.00011560,0
 .00004633,-0.00004012,-0.00000269,-0.00000857,-0.00000409,-0.00000003,
 0.00000440,-0.00000518,0.00000124,0.00000056,-0.00000034,-0.00000020,-
 0.00000027,0.00000399,-0.00002969,-0.00002274,0.00002996,0.00000106,0.
 00000348,-0.00000023,0.00000167,-0.00000445,0.00000701,-0.00001976,-0.
 00001628,-0.00000219,0.00000654,-0.00000679,0.00000228,-0.00000692,0.0
 0000091,-0.00000280,0.00000072,-0.00000084,0.00000026,-0.00000189,0.00
 000274,0.00000084,-0.00000057,0.00000066,0.00000021,-0.00000174,0.0000
 0106,-0.00000420,0.00000256,-0.00000192,0.00000344,-0.00000020,0.00000
 112,-0.00000061,-0.00000073,0.00000064,-0.00000011,-0.00000111,0.00000
 080,0.00000031,0.00000115,-0.00000112,0.00000043,-0.00001261,0.0000005
 2,0.00000428,0.00176427,-0.00016824,0.00134330,0.00090904,0.00026567,-
 0.00020525,0.00333429,-0.00005168,-0.00403515,-0.01985135,-0.00710237,
 -0.01685162,-0.12975114,-0.05058995,-0.22687178,0.00552241,0.00182193,
 0.00787703,-0.00016079,0.00005621,0.00000935,-0.00093736,-0.00033028,-
 0.00096284,0.00013402,0.00046750,0.00105132,0.13927317,0.05513406,0.23
 776058,0.00062679,0.00027636,0.00012088,-0.00008945,0.00059300,-0.0011
 5946,-0.00007043,-0.00008705,0.00061492,-0.00034277,-0.00008133,0.0001
 0396,-0.00001003,0.00003084,0.00001075,0.00003643,-0.00000494,0.000013
 41,-0.00000362,-0.00000205,0.00000162,0.00000654,0.00000173,-0.0000149
 7,0.00012175,0.00008553,-0.00010332,0.00000238,-0.00001200,-0.00000058
 ,-0.00000551,0.00002034,-0.00002628,0.00005040,0.00004453,0.00002601,-
 0.00000941,0.00001658,-0.00001317,0.00003704,-0.00000170,0.00001213,-0
 .00000774,0.00000748,0.00000146,0.00000937,-0.00000977,-0.00000564,0.0
 0000081,-0.00000520,0.00000231,0.00000638,0.00000300,0.00002056,-0.000
 00022,0.00000149,-0.00001033,0.00000115,-0.00000380,0.00000241,0.00000
 198,-0.00000211,0.00000034,0.00000364,-0.00000241,-0.00000085,-0.00000
 497,0.00000346,-0.00000118,-0.00000918,0.00007486,-0.00000596,0.010870
 73,0.00014112,-0.01724302,-0.00162098,-0.00252542,-0.00300416,-0.00095
 019,-0.00004190,-0.00053904,-0.00469887,-0.00311736,0.00017372,-0.0053
 7217,0.00033390,0.02901742,-0.09493318,-0.00607445,0.09545614,0.000377
 30,-0.00001656,-0.00096639,0.00003322,0.00030056,0.00007280,-0.0004029
 8,-0.00003785,0.00136842,0.00085773,0.00123550,-0.00052074,0.09548805,
 -0.00047694,0.00008718,-0.00008853,0.00155207,-0.00400426,-0.00041940,
 0.00045205,0.00027137,-0.00010504,0.00010107,-0.00001505,-0.00013182,-
 0.00001825,-0.00001256,-0.00000321,0.00000796,-0.00000250,0.00000119,0
 .00000040,0.00000107,0.00000178,0.00000440,0.00000285,0.00000255,0.000
 00043,-0.00001007,0.00003162,-0.00000024,0.00000174,0.00000001,0.00000
 055,0.00000104,0.00000217,-0.00005765,-0.00004546,-0.00001742,0.000014
 29,-0.00001199,-0.00000500,0.00000022,0.00000337,0.00000208,-0.0000015
 3,0.00000367,0.00000097,0.00000003,0.00000133,-0.00000143,0.00000037,0
 .,0.00000160,-0.00000367,0.00000481,-0.00000022,0.00000174,-0.00000339
 ,0.00000117,0.,0.00000072,0.00000015,-0.00000027,0.00000006,-0.0000001
 0,-0.00000096,0.00000021,-0.00000028,0.00000023,0.,0.00000089,0.000009
 14,0.00004641,0.00006943,0.00109407,0.00389809,-0.00705083,-0.00257515
 ,0.00591020,-0.00168858,-0.00003902,-0.00095946,0.00007479,-0.00321789
 ,0.00678250,-0.00046240,-0.00275671,0.00405306,0.00740859,-0.00463089,
 -0.04063961,-0.00099688,0.00013830,0.00027791,-0.00034586,0.00033024,-
 0.00101731,0.00009449,-0.00012463,-0.00001621,0.00034735,0.00134063,-0
 .00392778,0.00031885,0.00885562,0.02931806,-0.00021326,-0.00006912,0.0
 0005531,0.00246555,-0.00056915,-0.00104300,-0.00022195,0.00118674,0.00
 182943,0.00006001,-0.00000714,-0.00003029,-0.00001540,-0.00000838,-0.0
 0001701,-0.00001910,-0.00001913,0.00000238,-0.00000129,0.00000116,0.00
 000193,0.00000667,0.00000265,0.00000116,-0.00002044,-0.00001979,0.0000
 3373,0.00000199,0.00000215,-0.00000207,0.00000146,-0.00000159,0.000005
 93,-0.00001703,-0.00000141,-0.00001086,0.00000330,-0.00000437,0.000002
 31,0.00001467,0.00000012,0.00000396,-0.00000723,0.00000863,0.00000203,
 0.00000575,0.00000085,-0.00000636,0.00000032,-0.00000774,0.00000504,-0
 .00000787,0.00001026,0.00000735,0.00000482,-0.00000252,0.00000190,-0.0
 0000007,-0.00000022,0.00000028,0.00000005,-0.00000009,-0.00000005,0.00
 000015,0.00000021,0.,-0.00000048,-0.00000039,-0.00000027,-0.00004789,0
 .00006539,0.00001470,0.00999528,0.00037065,-0.01798827,-0.00347013,-0.
 00199581,-0.00190096,-0.00067567,-0.00000956,0.00038195,0.00073757,-0.
 00054237,0.00186683,-0.00082495,-0.00056043,-0.00019699,0.09499748,-0.
 00154241,-0.30501874,0.00053005,0.00006869,-0.00091779,0.00005380,0.00
 014807,-0.00007303,-0.00007132,-0.00006050,-0.00014230,0.00013930,0.00
 059921,0.00066585,-0.10340413,0.00295734,0.32246593\\-0.00000158,-0.00
 000037,0.00000147,-0.00000032,-0.00000034,0.00000032,0.00000407,0.0000
 0213,-0.00000205,-0.00000038,0.00000119,0.00000184,-0.00000022,0.00000
 320,0.00000291,-0.00000183,0.00000268,0.00000317,-0.00000306,0.0000060
 7,0.00000247,-0.00000229,0.00000528,0.00000349,-0.00000193,0.00000081,
 0.00000239,-0.00000313,0.00000282,0.00000359,-0.00000203,0.00000444,0.
 00000419,-0.00000162,-0.00000132,0.00000276,-0.00000096,0.00000029,-0.
 00000025,0.00000061,-0.00000136,-0.00000127,0.00000147,0.,-0.00000274,
 0.00000163,0.00000158,-0.00000278,0.00000086,0.00000324,-0.00000198,0.
 00000081,0.00000030,0.00000012,0.00000057,-0.00000206,-0.00000091,0.00
 000226,-0.00000147,-0.00000370,0.00000241,0.00000205,-0.00000431,0.000
 00105,0.00000475,-0.00000211,-0.00000081,0.00000574,-0.00000094,-0.000
 00166,-0.00000196,0.00000329,0.00000011,-0.00000189,-0.00000070,0.0000
 0034,-0.00000379,-0.00000018,0.00000053,-0.00000526,-0.00000082,0.0000
 0082,-0.00000443,-0.00000115,0.00000072,-0.00000259,-0.00000110,0.0000
 0065,-0.00000133,-0.00000062,0.00000006,-0.00000448,-0.00000007,0.0000
 0062,-0.00000688,-0.00000076,0.00000096,-0.00000562,-0.00000147,0.0000
 0092,-0.00000189,-0.00000136,0.00000038,0.00000051,-0.00000076\\\@


 TIME IS NATURE'S WAY OF MAKING SURE EVERYTHING
 DOESN'T HAPPEN AT ONCE.
                     - WOODY ALLEN
 Job cpu time:       1 days 11 hours 45 minutes 12.2 seconds.
 Elapsed time:       0 days  2 hours 14 minutes  9.9 seconds.
 File lengths (MBytes):  RWF=   1878 Int=      0 D2E=      0 Chk=     58 Scr=      1
 Normal termination of Gaussian 16 at Sat Feb 27 07:59:05 2021.
