 Entering Gaussian System, Link 0=g16
 Initial command:
 /apps/gaussian/16/A.03/g16/l1.exe "/beegfs/scratch/user/q/tla25/Gau-37573.inp" -scrdir="/beegfs/scratch/user/q/tla25/"
 Entering Link 1 = /apps/gaussian/16/A.03/g16/l1.exe PID=     37574.
  
 Copyright (c) 1988,1990,1992,1993,1995,1998,2003,2009,2016,
            Gaussian, Inc.  All Rights Reserved.
  
 This is part of the Gaussian(R) 16 program.  It is based on
 the Gaussian(R) 09 system (copyright 2009, Gaussian, Inc.),
 the Gaussian(R) 03 system (copyright 2003, Gaussian, Inc.),
 the Gaussian(R) 98 system (copyright 1998, Gaussian, Inc.),
 the Gaussian(R) 94 system (copyright 1995, Gaussian, Inc.),
 the Gaussian 92(TM) system (copyright 1992, Gaussian, Inc.),
 the Gaussian 90(TM) system (copyright 1990, Gaussian, Inc.),
 the Gaussian 88(TM) system (copyright 1988, Gaussian, Inc.),
 the Gaussian 86(TM) system (copyright 1986, Carnegie Mellon
 University), and the Gaussian 82(TM) system (copyright 1983,
 Carnegie Mellon University). Gaussian is a federally registered
 trademark of Gaussian, Inc.
  
 This software contains proprietary and confidential information,
 including trade secrets, belonging to Gaussian, Inc.
  
 This software is provided under written license and may be
 used, copied, transmitted, or stored only in accord with that
 written license.
  
 The following legend is applicable only to US Government
 contracts under FAR:
  
                    RESTRICTED RIGHTS LEGEND
  
 Use, reproduction and disclosure by the US Government is
 subject to restrictions as set forth in subparagraphs (a)
 and (c) of the Commercial Computer Software - Restricted
 Rights clause in FAR 52.227-19.
  
 Gaussian, Inc.
 340 Quinnipiac St., Bldg. 40, Wallingford CT 06492
  
  
 ---------------------------------------------------------------
 Warning -- This program may not be used in any manner that
 competes with the business of Gaussian, Inc. or will provide
 assistance to any competitor of Gaussian, Inc.  The licensee
 of this program is prohibited from giving any competitor of
 Gaussian, Inc. access to this program.  By using this program,
 the user acknowledges that Gaussian, Inc. is engaged in the
 business of creating and licensing software in the field of
 computational chemistry and represents and warrants to the
 licensee that it is not a competitor of Gaussian, Inc. and that
 it will not use this program in any manner prohibited above.
 ---------------------------------------------------------------
  

 Cite this work as:
 Gaussian 16, Revision A.03,
 M. J. Frisch, G. W. Trucks, H. B. Schlegel, G. E. Scuseria, 
 M. A. Robb, J. R. Cheeseman, G. Scalmani, V. Barone, 
 G. A. Petersson, H. Nakatsuji, X. Li, M. Caricato, A. V. Marenich, 
 J. Bloino, B. G. Janesko, R. Gomperts, B. Mennucci, H. P. Hratchian, 
 J. V. Ortiz, A. F. Izmaylov, J. L. Sonnenberg, D. Williams-Young, 
 F. Ding, F. Lipparini, F. Egidi, J. Goings, B. Peng, A. Petrone, 
 T. Henderson, D. Ranasinghe, V. G. Zakrzewski, J. Gao, N. Rega, 
 G. Zheng, W. Liang, M. Hada, M. Ehara, K. Toyota, R. Fukuda, 
 J. Hasegawa, M. Ishida, T. Nakajima, Y. Honda, O. Kitao, H. Nakai, 
 T. Vreven, K. Throssell, J. A. Montgomery, Jr., J. E. Peralta, 
 F. Ogliaro, M. J. Bearpark, J. J. Heyd, E. N. Brothers, K. N. Kudin, 
 V. N. Staroverov, T. A. Keith, R. Kobayashi, J. Normand, 
 K. Raghavachari, A. P. Rendell, J. C. Burant, S. S. Iyengar, 
 J. Tomasi, M. Cossi, J. M. Millam, M. Klene, C. Adamo, R. Cammi, 
 J. W. Ochterski, R. L. Martin, K. Morokuma, O. Farkas, 
 J. B. Foresman, and D. J. Fox, Gaussian, Inc., Wallingford CT, 2016.
 
 ******************************************
 Gaussian 16:  ES64L-G16RevA.03 25-Dec-2016
                26-Feb-2021 
 ******************************************
 %nprocshared=16
 Will use up to   16 processors via shared memory.
 %mem=48GB
 ----------------------------------------------------------------------
 # wB97XD def2tzvp, opt=(ts, noeigen, calcfc, maxcycles=70, maxstep=5),
  freq=noraman, scrf=(iefpcm, solvent=water)
 ----------------------------------------------------------------------
 1/5=1,6=70,8=5,10=4,11=1,18=20,26=3,38=1/1,3;
 2/9=110,12=2,17=6,18=5,40=1/2;
 3/5=44,7=101,11=2,25=1,30=1,70=2201,71=2,72=1,74=-58,140=1/1,2,3;
 4//1;
 5/5=2,38=5,53=1/2;
 8/6=4,10=90,11=11/1;
 11/6=1,8=1,9=11,15=111,16=1/1,2,10;
 10/6=1,13=1/2;
 6/7=2,8=2,9=2,10=2,28=1/1;
 7/10=1,18=20,25=1/1,2,3,16;
 1/5=1,6=70,8=5,10=4,11=1,18=20,26=3/3(2);
 2/9=110/2;
 99//99;
 2/9=110/2;
 3/5=44,7=101,11=2,25=1,30=1,70=2205,71=1,72=1,74=-58/1,2,3;
 4/5=5,16=3,69=1/1;
 5/5=2,38=5,53=1/2;
 7//1,2,3,16;
 1/5=1,6=70,8=5,11=1,18=20,26=3/3(-5);
 2/9=110/2;
 6/7=2,8=2,9=2,10=2,19=2,28=1/1;
 99/9=1/99;
 ------------------------
 2_iteration/TS-884-2.out
 ------------------------
 Symbolic Z-matrix:
 Charge =  0 Multiplicity = 1
 C                    -0.41166   0.24563  -0.2843 
 C                    -0.87833   1.60176  -0.26804 
 O                    -2.02175   2.0216   -0.40061 
 C                    -1.30474  -0.82548  -0.42429 
 C                    -2.07107  -0.68661   2.25108 
 H                    -1.88925  -1.03944   3.26514 
 H                    -1.54965   0.26051   2.10103 
 H                    -3.13769  -0.53322   2.10846 
 N                    -1.578    -1.63727   1.26034 
 H                    -0.65695  -1.98395   1.50567 
 H                    -2.1897   -2.43975   1.15759 
 Cl                   -0.60203  -2.30362  -1.1978 
 C                    -2.73231  -0.66015  -0.86614 
 H                    -3.25067   0.04484  -0.22371 
 H                    -2.74829  -0.25698  -1.87815 
 H                    -3.24478  -1.62041  -0.86389 
 C                     1.04172  -0.01738  -0.05952 
 C                     1.5466   -0.23449   1.22117 
 C                     2.89496  -0.49383   1.43044 
 C                     3.76903  -0.53326   0.35512 
 C                     3.28487  -0.30861  -0.92726 
 C                     1.93709  -0.05529  -1.12794 
 H                     0.88041  -0.17974   2.07475 
 H                     3.26163  -0.65965   2.43598 
 H                     4.8212   -0.73385   0.51389 
 H                     3.96042  -0.33295  -1.77363 
 H                     1.56296   0.1146   -2.13044 
 O                     0.14752   2.48056  -0.08846 
 C                    -0.19884   3.85593  -0.07349 
 H                    -0.65514   4.15962  -1.01647 
 H                    -0.88833   4.08142   0.74117 
 H                     0.7343    4.39483   0.07434 
 
 Add virtual bond connecting atoms N9         and C4         Dist= 3.57D+00.

 GradGradGradGradGradGradGradGradGradGradGradGradGradGradGradGradGradGrad
 Berny optimization.
 Initialization pass.
                           ----------------------------
                           !    Initial Parameters    !
                           ! (Angstroms and Degrees)  !
 --------------------------                            --------------------------
 ! Name  Definition              Value          Derivative Info.                !
 --------------------------------------------------------------------------------
 ! R1    R(1,2)                  1.4343         calculate D2E/DX2 analytically  !
 ! R2    R(1,4)                  1.4016         calculate D2E/DX2 analytically  !
 ! R3    R(1,17)                 1.494          calculate D2E/DX2 analytically  !
 ! R4    R(2,3)                  1.2253         calculate D2E/DX2 analytically  !
 ! R5    R(2,28)                 1.3627         calculate D2E/DX2 analytically  !
 ! R6    R(4,9)                  1.8899         calculate D2E/DX2 analytically  !
 ! R7    R(4,12)                 1.8103         calculate D2E/DX2 analytically  !
 ! R8    R(4,13)                 1.5035         calculate D2E/DX2 analytically  !
 ! R9    R(5,6)                  1.089          calculate D2E/DX2 analytically  !
 ! R10   R(5,7)                  1.0915         calculate D2E/DX2 analytically  !
 ! R11   R(5,8)                  1.087          calculate D2E/DX2 analytically  !
 ! R12   R(5,9)                  1.4589         calculate D2E/DX2 analytically  !
 ! R13   R(9,10)                 1.0143         calculate D2E/DX2 analytically  !
 ! R14   R(9,11)                 1.0143         calculate D2E/DX2 analytically  !
 ! R15   R(13,14)                1.0856         calculate D2E/DX2 analytically  !
 ! R16   R(13,15)                1.0895         calculate D2E/DX2 analytically  !
 ! R17   R(13,16)                1.0885         calculate D2E/DX2 analytically  !
 ! R18   R(17,18)                1.3936         calculate D2E/DX2 analytically  !
 ! R19   R(17,22)                1.3945         calculate D2E/DX2 analytically  !
 ! R20   R(18,19)                1.3889         calculate D2E/DX2 analytically  !
 ! R21   R(18,23)                1.0842         calculate D2E/DX2 analytically  !
 ! R22   R(19,20)                1.3863         calculate D2E/DX2 analytically  !
 ! R23   R(19,24)                1.0831         calculate D2E/DX2 analytically  !
 ! R24   R(20,21)                1.389          calculate D2E/DX2 analytically  !
 ! R25   R(20,25)                1.0828         calculate D2E/DX2 analytically  !
 ! R26   R(21,22)                1.386          calculate D2E/DX2 analytically  !
 ! R27   R(21,26)                1.0832         calculate D2E/DX2 analytically  !
 ! R28   R(22,27)                1.0834         calculate D2E/DX2 analytically  !
 ! R29   R(28,29)                1.4184         calculate D2E/DX2 analytically  !
 ! R30   R(29,30)                1.0907         calculate D2E/DX2 analytically  !
 ! R31   R(29,31)                1.0908         calculate D2E/DX2 analytically  !
 ! R32   R(29,32)                1.0877         calculate D2E/DX2 analytically  !
 ! A1    A(2,1,4)              121.0899         calculate D2E/DX2 analytically  !
 ! A2    A(2,1,17)             118.7687         calculate D2E/DX2 analytically  !
 ! A3    A(4,1,17)             120.0238         calculate D2E/DX2 analytically  !
 ! A4    A(1,2,3)              128.785          calculate D2E/DX2 analytically  !
 ! A5    A(1,2,28)             111.4887         calculate D2E/DX2 analytically  !
 ! A6    A(3,2,28)             119.7235         calculate D2E/DX2 analytically  !
 ! A7    A(1,4,9)              109.3515         calculate D2E/DX2 analytically  !
 ! A8    A(1,4,12)             114.7927         calculate D2E/DX2 analytically  !
 ! A9    A(1,4,13)             123.3894         calculate D2E/DX2 analytically  !
 ! A10   A(9,4,12)              94.9494         calculate D2E/DX2 analytically  !
 ! A11   A(9,4,13)              99.8988         calculate D2E/DX2 analytically  !
 ! A12   A(12,4,13)            109.4385         calculate D2E/DX2 analytically  !
 ! A13   A(6,5,7)              109.2317         calculate D2E/DX2 analytically  !
 ! A14   A(6,5,8)              109.3742         calculate D2E/DX2 analytically  !
 ! A15   A(6,5,9)              111.3965         calculate D2E/DX2 analytically  !
 ! A16   A(7,5,8)              109.1634         calculate D2E/DX2 analytically  !
 ! A17   A(7,5,9)              108.0961         calculate D2E/DX2 analytically  !
 ! A18   A(8,5,9)              109.5414         calculate D2E/DX2 analytically  !
 ! A19   A(4,9,5)              111.9815         calculate D2E/DX2 analytically  !
 ! A20   A(4,9,10)             103.3637         calculate D2E/DX2 analytically  !
 ! A21   A(4,9,11)             109.6794         calculate D2E/DX2 analytically  !
 ! A22   A(5,9,10)             111.4311         calculate D2E/DX2 analytically  !
 ! A23   A(5,9,11)             112.3665         calculate D2E/DX2 analytically  !
 ! A24   A(10,9,11)            107.5626         calculate D2E/DX2 analytically  !
 ! A25   A(4,13,14)            110.5416         calculate D2E/DX2 analytically  !
 ! A26   A(4,13,15)            109.1233         calculate D2E/DX2 analytically  !
 ! A27   A(4,13,16)            110.4522         calculate D2E/DX2 analytically  !
 ! A28   A(14,13,15)           107.6011         calculate D2E/DX2 analytically  !
 ! A29   A(14,13,16)           110.2976         calculate D2E/DX2 analytically  !
 ! A30   A(15,13,16)           108.7529         calculate D2E/DX2 analytically  !
 ! A31   A(1,17,18)            121.206          calculate D2E/DX2 analytically  !
 ! A32   A(1,17,22)            120.9392         calculate D2E/DX2 analytically  !
 ! A33   A(18,17,22)           117.8547         calculate D2E/DX2 analytically  !
 ! A34   A(17,18,19)           121.2815         calculate D2E/DX2 analytically  !
 ! A35   A(17,18,23)           119.5403         calculate D2E/DX2 analytically  !
 ! A36   A(19,18,23)           119.1653         calculate D2E/DX2 analytically  !
 ! A37   A(18,19,20)           120.0347         calculate D2E/DX2 analytically  !
 ! A38   A(18,19,24)           119.8101         calculate D2E/DX2 analytically  !
 ! A39   A(20,19,24)           120.1544         calculate D2E/DX2 analytically  !
 ! A40   A(19,20,21)           119.4556         calculate D2E/DX2 analytically  !
 ! A41   A(19,20,25)           120.2774         calculate D2E/DX2 analytically  !
 ! A42   A(21,20,25)           120.2666         calculate D2E/DX2 analytically  !
 ! A43   A(20,21,22)           120.145          calculate D2E/DX2 analytically  !
 ! A44   A(20,21,26)           120.0237         calculate D2E/DX2 analytically  !
 ! A45   A(22,21,26)           119.8312         calculate D2E/DX2 analytically  !
 ! A46   A(17,22,21)           121.2253         calculate D2E/DX2 analytically  !
 ! A47   A(17,22,27)           118.878          calculate D2E/DX2 analytically  !
 ! A48   A(21,22,27)           119.8964         calculate D2E/DX2 analytically  !
 ! A49   A(2,28,29)            116.2892         calculate D2E/DX2 analytically  !
 ! A50   A(28,29,30)           111.2859         calculate D2E/DX2 analytically  !
 ! A51   A(28,29,31)           111.2646         calculate D2E/DX2 analytically  !
 ! A52   A(28,29,32)           105.8055         calculate D2E/DX2 analytically  !
 ! A53   A(30,29,31)           108.886          calculate D2E/DX2 analytically  !
 ! A54   A(30,29,32)           109.7836         calculate D2E/DX2 analytically  !
 ! A55   A(31,29,32)           109.7766         calculate D2E/DX2 analytically  !
 ! D1    D(4,1,2,3)             -2.2026         calculate D2E/DX2 analytically  !
 ! D2    D(4,1,2,28)           178.4196         calculate D2E/DX2 analytically  !
 ! D3    D(17,1,2,3)          -178.2605         calculate D2E/DX2 analytically  !
 ! D4    D(17,1,2,28)            2.3618         calculate D2E/DX2 analytically  !
 ! D5    D(2,1,4,9)           -102.7183         calculate D2E/DX2 analytically  !
 ! D6    D(2,1,4,12)           152.0365         calculate D2E/DX2 analytically  !
 ! D7    D(2,1,4,13)            14.0063         calculate D2E/DX2 analytically  !
 ! D8    D(17,1,4,9)            73.2905         calculate D2E/DX2 analytically  !
 ! D9    D(17,1,4,12)          -31.9547         calculate D2E/DX2 analytically  !
 ! D10   D(17,1,4,13)         -169.9849         calculate D2E/DX2 analytically  !
 ! D11   D(2,1,17,18)           90.4127         calculate D2E/DX2 analytically  !
 ! D12   D(2,1,17,22)          -89.6848         calculate D2E/DX2 analytically  !
 ! D13   D(4,1,17,18)          -85.6883         calculate D2E/DX2 analytically  !
 ! D14   D(4,1,17,22)           94.2142         calculate D2E/DX2 analytically  !
 ! D15   D(1,2,28,29)          179.2112         calculate D2E/DX2 analytically  !
 ! D16   D(3,2,28,29)           -0.2303         calculate D2E/DX2 analytically  !
 ! D17   D(1,4,9,5)             57.1585         calculate D2E/DX2 analytically  !
 ! D18   D(1,4,9,10)           -62.9            calculate D2E/DX2 analytically  !
 ! D19   D(1,4,9,11)          -177.3783         calculate D2E/DX2 analytically  !
 ! D20   D(12,4,9,5)           175.6171         calculate D2E/DX2 analytically  !
 ! D21   D(12,4,9,10)           55.5586         calculate D2E/DX2 analytically  !
 ! D22   D(12,4,9,11)          -58.9197         calculate D2E/DX2 analytically  !
 ! D23   D(13,4,9,5)           -73.6385         calculate D2E/DX2 analytically  !
 ! D24   D(13,4,9,10)          166.303          calculate D2E/DX2 analytically  !
 ! D25   D(13,4,9,11)           51.8247         calculate D2E/DX2 analytically  !
 ! D26   D(1,4,13,14)          -55.3758         calculate D2E/DX2 analytically  !
 ! D27   D(1,4,13,15)           62.7695         calculate D2E/DX2 analytically  !
 ! D28   D(1,4,13,16)         -177.7276         calculate D2E/DX2 analytically  !
 ! D29   D(9,4,13,14)           65.8145         calculate D2E/DX2 analytically  !
 ! D30   D(9,4,13,15)         -176.0402         calculate D2E/DX2 analytically  !
 ! D31   D(9,4,13,16)          -56.5373         calculate D2E/DX2 analytically  !
 ! D32   D(12,4,13,14)         164.6999         calculate D2E/DX2 analytically  !
 ! D33   D(12,4,13,15)         -77.1549         calculate D2E/DX2 analytically  !
 ! D34   D(12,4,13,16)          42.348          calculate D2E/DX2 analytically  !
 ! D35   D(6,5,9,4)           -159.4684         calculate D2E/DX2 analytically  !
 ! D36   D(6,5,9,10)           -44.2415         calculate D2E/DX2 analytically  !
 ! D37   D(6,5,9,11)            76.5589         calculate D2E/DX2 analytically  !
 ! D38   D(7,5,9,4)            -39.4538         calculate D2E/DX2 analytically  !
 ! D39   D(7,5,9,10)            75.7731         calculate D2E/DX2 analytically  !
 ! D40   D(7,5,9,11)          -163.4265         calculate D2E/DX2 analytically  !
 ! D41   D(8,5,9,4)             79.3908         calculate D2E/DX2 analytically  !
 ! D42   D(8,5,9,10)          -165.3822         calculate D2E/DX2 analytically  !
 ! D43   D(8,5,9,11)           -44.5818         calculate D2E/DX2 analytically  !
 ! D44   D(1,17,18,19)         179.2771         calculate D2E/DX2 analytically  !
 ! D45   D(1,17,18,23)          -2.0404         calculate D2E/DX2 analytically  !
 ! D46   D(22,17,18,19)         -0.6283         calculate D2E/DX2 analytically  !
 ! D47   D(22,17,18,23)        178.0541         calculate D2E/DX2 analytically  !
 ! D48   D(1,17,22,21)        -179.5151         calculate D2E/DX2 analytically  !
 ! D49   D(1,17,22,27)           0.2986         calculate D2E/DX2 analytically  !
 ! D50   D(18,17,22,21)          0.3906         calculate D2E/DX2 analytically  !
 ! D51   D(18,17,22,27)       -179.7957         calculate D2E/DX2 analytically  !
 ! D52   D(17,18,19,20)          0.3659         calculate D2E/DX2 analytically  !
 ! D53   D(17,18,19,24)       -179.9633         calculate D2E/DX2 analytically  !
 ! D54   D(23,18,19,20)       -178.3214         calculate D2E/DX2 analytically  !
 ! D55   D(23,18,19,24)          1.3494         calculate D2E/DX2 analytically  !
 ! D56   D(18,19,20,21)          0.1503         calculate D2E/DX2 analytically  !
 ! D57   D(18,19,20,25)        179.922          calculate D2E/DX2 analytically  !
 ! D58   D(24,19,20,21)       -179.5194         calculate D2E/DX2 analytically  !
 ! D59   D(24,19,20,25)          0.2523         calculate D2E/DX2 analytically  !
 ! D60   D(19,20,21,22)         -0.3843         calculate D2E/DX2 analytically  !
 ! D61   D(19,20,21,26)        179.7318         calculate D2E/DX2 analytically  !
 ! D62   D(25,20,21,22)        179.844          calculate D2E/DX2 analytically  !
 ! D63   D(25,20,21,26)         -0.0399         calculate D2E/DX2 analytically  !
 ! D64   D(20,21,22,17)          0.1096         calculate D2E/DX2 analytically  !
 ! D65   D(20,21,22,27)       -179.7022         calculate D2E/DX2 analytically  !
 ! D66   D(26,21,22,17)        179.9938         calculate D2E/DX2 analytically  !
 ! D67   D(26,21,22,27)          0.1819         calculate D2E/DX2 analytically  !
 ! D68   D(2,28,29,30)         -60.6006         calculate D2E/DX2 analytically  !
 ! D69   D(2,28,29,31)          61.0262         calculate D2E/DX2 analytically  !
 ! D70   D(2,28,29,32)        -179.7971         calculate D2E/DX2 analytically  !
 --------------------------------------------------------------------------------
 Trust Radius=5.00D-02 FncErr=1.00D-07 GrdErr=1.00D-06 EigMax=2.50D+02 EigMin=1.00D-04
 Number of steps in this run=     70 maximum allowed number of steps=    192.
 Search for a saddle point of order  1.
 GradGradGradGradGradGradGradGradGradGradGradGradGradGradGradGradGradGrad

                          Input orientation:                          
 ---------------------------------------------------------------------
 Center     Atomic      Atomic             Coordinates (Angstroms)
 Number     Number       Type             X           Y           Z
 ---------------------------------------------------------------------
      1          6           0       -0.411660    0.245630   -0.284300
      2          6           0       -0.878330    1.601760   -0.268040
      3          8           0       -2.021750    2.021600   -0.400610
      4          6           0       -1.304740   -0.825480   -0.424290
      5          6           0       -2.071070   -0.686610    2.251080
      6          1           0       -1.889250   -1.039440    3.265140
      7          1           0       -1.549650    0.260510    2.101030
      8          1           0       -3.137690   -0.533220    2.108460
      9          7           0       -1.578000   -1.637270    1.260340
     10          1           0       -0.656950   -1.983950    1.505670
     11          1           0       -2.189700   -2.439750    1.157590
     12         17           0       -0.602030   -2.303620   -1.197800
     13          6           0       -2.732310   -0.660150   -0.866140
     14          1           0       -3.250670    0.044840   -0.223710
     15          1           0       -2.748290   -0.256980   -1.878150
     16          1           0       -3.244780   -1.620410   -0.863890
     17          6           0        1.041720   -0.017380   -0.059520
     18          6           0        1.546600   -0.234490    1.221170
     19          6           0        2.894960   -0.493830    1.430440
     20          6           0        3.769030   -0.533260    0.355120
     21          6           0        3.284870   -0.308610   -0.927260
     22          6           0        1.937090   -0.055290   -1.127940
     23          1           0        0.880410   -0.179740    2.074750
     24          1           0        3.261630   -0.659650    2.435980
     25          1           0        4.821200   -0.733850    0.513890
     26          1           0        3.960420   -0.332950   -1.773630
     27          1           0        1.562960    0.114600   -2.130440
     28          8           0        0.147520    2.480560   -0.088460
     29          6           0       -0.198840    3.855930   -0.073490
     30          1           0       -0.655140    4.159620   -1.016470
     31          1           0       -0.888330    4.081420    0.741170
     32          1           0        0.734300    4.394830    0.074340
 ---------------------------------------------------------------------
                    Distance matrix (angstroms):
                    1          2          3          4          5
     1  C    0.000000
     2  C    1.434271   0.000000
     3  O    2.399997   1.225255   0.000000
     4  C    1.401594   2.469359   2.936074   0.000000
     5  C    3.170310   3.606277   3.790553   2.786423   0.000000
     6  H    4.053789   4.525622   4.777577   3.741567   1.088974
     7  H    2.642923   2.803946   3.095564   2.759818   1.091527
     8  H    3.709872   3.912876   3.750715   3.140055   1.086990
     9  N    2.700291   3.649219   4.042647   1.889882   1.458917
    10  H    2.869702   4.006541   4.641230   2.342313   2.058753
    11  H    3.528702   4.481731   4.728619   2.427214   2.069612
    12  Cl   2.714664   4.024026   4.621541   1.810253   4.082594
    13  C    2.558201   2.985164   2.813076   1.503503   3.186691
    14  H    2.846746   2.837950   2.334335   2.141106   2.837439
    15  H    2.872771   3.089356   2.811212   2.126203   4.206394
    16  H    3.441598   4.041968   3.869712   2.142176   3.457256
    17  C    1.493993   2.520255   3.695758   2.508377   3.933981
    18  C    2.516294   3.386716   4.522525   3.344689   3.788491
    19  C    3.797482   4.638324   5.818434   4.602988   5.037069
    20  C    4.300430   5.152145   6.374290   5.141596   6.142064
    21  C    3.792745   4.627777   5.819575   4.645929   6.239457
    22  C    2.513744   3.378140   4.529337   3.405551   5.280311
    23  H    2.723142   3.428640   4.404071   3.381872   2.999874
    24  H    4.659669   5.437368   6.568824   5.390768   5.335973
    25  H    5.383244   6.208956   7.433356   6.198042   7.107985
    26  H    4.654884   5.424335   6.573846   5.457583   7.259631
    27  H    2.706386   3.411755   4.413514   3.466757   5.748550
    28  O    2.312131   1.362684   2.239155   3.626533   4.519575
    29  C    3.622706   2.362380   2.606679   4.823036   5.435397
    30  H    3.989320   2.674436   2.611137   5.062003   6.013958
    31  H    3.999011   2.677185   2.613649   5.060569   5.139340
    32  H    4.319457   3.243307   3.667916   5.626540   6.199139
                    6          7          8          9         10
     6  H    0.000000
     7  H    1.777737   0.000000
     8  H    1.775604   1.775369   0.000000
     9  N    2.115065   2.075845   2.090662   0.000000
    10  H    2.346571   2.487764   2.936332   1.014252   0.000000
    11  H    2.548118   2.931066   2.331887   1.014253   1.636532
    12  Cl   4.813826   4.284277   4.527167   2.727452   2.722858
    13  C    4.233448   3.324214   3.004778   2.609428   3.418340
    14  H    3.898872   2.888667   2.405397   2.798164   3.719426
    15  H    5.272914   4.187888   4.015097   3.622830   4.336631
    16  H    4.384504   3.898984   3.166751   2.700147   3.527583
    17  C    4.548467   3.385321   4.736422   3.350971   3.033595
    18  C    4.078091   3.256677   4.776934   3.425267   2.827929
    19  C    5.152910   4.557771   6.070760   4.619931   3.852555
    20  C    6.382834   5.653904   7.125797   5.534346   4.797663
    21  C    6.699392   5.732977   7.107413   5.495310   4.925836
    22  C    5.908348   4.762702   6.037888   4.534578   4.169493
    23  H    3.134825   2.469758   4.033759   2.971773   2.437725
    24  H    5.230995   4.909919   6.408943   5.075420   4.239636
    25  H    7.258988   6.640444   8.119534   6.505622   5.705831
    26  H    7.752869   6.762104   8.092830   6.448280   5.899128
    27  H    6.508598   5.254995   6.362708   4.942880   4.749022
    28  O    5.271192   3.550053   4.970104   4.664033   4.808354
    29  C    6.161865   4.413646   5.715101   5.818628   6.066944
    30  H    6.847294   5.071687   6.160437   6.295988   6.641133
    31  H    5.796160   4.109248   5.312627   5.783476   6.117737
    32  H    6.826090   5.139699   6.589054   6.568071   6.683795
                   11         12         13         14         15
    11  H    0.000000
    12  Cl   2.843781   0.000000
    13  C    2.748979   2.710920   0.000000
    14  H    3.034277   3.671432   1.085553   0.000000
    15  H    3.780506   3.042703   1.089480   1.755179   0.000000
    16  H    2.422993   2.749982   1.088453   1.784075   1.770358
    17  C    4.217974   3.037184   3.912428   4.295980   4.210582
    18  C    4.339027   3.840485   4.779866   5.017918   5.296449
    19  C    5.451130   4.734123   6.080141   6.387108   6.545925
    20  C    6.307545   4.965068   6.616268   7.067208   6.894874
    21  C    6.233721   4.377356   6.027750   6.582795   6.107854
    22  C    5.285801   3.392197   4.715686   5.266926   4.749345
    23  H    3.921021   4.173497   4.683094   4.732777   5.366456
    24  H    5.875375   5.552915   6.843341   7.069675   7.408981
    25  H    7.244112   5.899617   7.678895   8.142819   7.952763
    26  H    7.131243   5.003106   6.761896   7.385445   6.709954
    27  H    5.605203   3.377097   4.544011   5.177984   4.334582
    28  O    5.587906   4.967981   4.331543   4.183147   4.368390
    29  C    6.716745   6.274288   5.238487   4.884735   5.164545
    30  H    7.115694   6.466001   5.250468   4.929164   4.962875
    31  H    6.662779   6.679095   5.335372   4.775523   5.398333
    32  H    7.512303   6.947903   6.201186   5.906880   6.130252
                   16         17         18         19         20
    16  H    0.000000
    17  C    4.646590   0.000000
    18  C    5.406068   1.393631   0.000000
    19  C    6.650529   2.425177   1.388930   0.000000
    20  C    7.201487   2.806471   2.403851   1.386314   0.000000
    21  C    6.660418   2.422707   2.764566   2.396891   1.389020
    22  C    5.419511   1.394506   2.388077   2.766792   2.404980
    23  H    5.265769   2.146506   1.084161   2.138270   3.380271
    24  H    7.358368   3.401181   2.144260   1.083076   2.145555
    25  H    8.230693   3.889293   3.387124   2.146643   1.082823
    26  H    7.375641   3.399495   3.847733   3.380407   2.146702
    27  H    5.265812   2.139584   3.369781   3.850231   3.385923
    28  O    5.378378   2.653325   3.323259   4.324636   4.732358
    29  C    6.316073   4.067151   4.631872   5.545612   5.932343
    30  H    6.335477   4.608950   5.400268   6.343909   6.593759
    31  H    6.374946   4.600691   4.978590   5.976729   6.567748
    32  H    7.272996   4.424932   4.837939   5.514205   5.794350
                   21         22         23         24         25
    21  C    0.000000
    22  C    1.385985   0.000000
    23  H    3.848389   3.374801   0.000000
    24  H    3.381590   3.849829   2.455811   0.000000
    25  H    2.148965   3.387350   4.274710   2.476327   0.000000
    26  H    1.083191   2.141933   4.931528   4.279703   2.476774
    27  H    2.142831   1.083440   4.270379   4.933268   4.281177
    28  O    4.280890   3.273166   3.506252   5.092288   5.704256
    29  C    5.496231   4.579487   4.697483   6.217938   6.827291
    30  H    5.957912   4.949500   5.544691   7.105340   7.501890
    31  H    6.282644   5.346863   4.802537   6.524745   7.472430
    32  H    5.443433   4.764006   4.994965   6.124746   6.572619
                   26         27         28         29         30
    26  H    0.000000
    27  H    2.464838   0.000000
    28  O    5.029298   3.430877   0.000000
    29  C    6.143015   4.618715   1.418391   0.000000
    30  H    6.485358   4.745849   2.079593   1.090710   0.000000
    31  H    7.022910   5.476370   2.079429   1.090831   1.774765
    32  H    6.014545   4.885499   2.008792   1.087666   1.782059
                   31         32
    31  H    0.000000
    32  H    1.782082   0.000000
 Stoichiometry    C12H16ClNO2
 Framework group  C1[X(C12H16ClNO2)]
 Deg. of freedom    90
 Full point group                 C1      NOp   1
 Largest Abelian subgroup         C1      NOp   1
 Largest concise Abelian subgroup C1      NOp   1
                         Standard orientation:                         
 ---------------------------------------------------------------------
 Center     Atomic      Atomic             Coordinates (Angstroms)
 Number     Number       Type             X           Y           Z
 ---------------------------------------------------------------------
      1          6           0       -0.411661    0.245629   -0.284299
      2          6           0       -0.878332    1.601759   -0.268039
      3          8           0       -2.021752    2.021598   -0.400609
      4          6           0       -1.304740   -0.825482   -0.424289
      5          6           0       -2.071070   -0.686612    2.251081
      6          1           0       -1.889249   -1.039442    3.265141
      7          1           0       -1.549651    0.260508    2.101031
      8          1           0       -3.137690   -0.533223    2.108461
      9          7           0       -1.577999   -1.637272    1.260341
     10          1           0       -0.656949   -1.983951    1.505671
     11          1           0       -2.189698   -2.439752    1.157591
     12         17           0       -0.602028   -2.303621   -1.197799
     13          6           0       -2.732310   -0.660153   -0.866139
     14          1           0       -3.250670    0.044837   -0.223709
     15          1           0       -2.748290   -0.256983   -1.878149
     16          1           0       -3.244779   -1.620413   -0.863889
     17          6           0        1.041720   -0.017379   -0.059519
     18          6           0        1.546600   -0.234489    1.221171
     19          6           0        2.894960   -0.493828    1.430441
     20          6           0        3.769030   -0.533257    0.355121
     21          6           0        3.284870   -0.308608   -0.927259
     22          6           0        1.937090   -0.055289   -1.127939
     23          1           0        0.880410   -0.179740    2.074751
     24          1           0        3.261630   -0.659648    2.435981
     25          1           0        4.821200   -0.733846    0.513891
     26          1           0        3.960420   -0.332947   -1.773629
     27          1           0        1.562960    0.114601   -2.130439
     28          8           0        0.147518    2.480560   -0.088459
     29          6           0       -0.198844    3.855929   -0.073489
     30          1           0       -0.655144    4.159619   -1.016469
     31          1           0       -0.888334    4.081419    0.741171
     32          1           0        0.734296    4.394830    0.074341
 ---------------------------------------------------------------------
 Rotational constants (GHZ):           0.5272738           0.4416695           0.3214413
 Standard basis: def2TZVP (5D, 7F)
 There are   678 symmetry adapted cartesian basis functions of A   symmetry.
 There are   598 symmetry adapted basis functions of A   symmetry.
   598 basis functions,   962 primitive gaussians,   678 cartesian basis functions
    64 alpha electrons       64 beta electrons
       nuclear repulsion energy      1280.2688485525 Hartrees.
 NAtoms=   32 NActive=   32 NUniq=   32 SFac= 1.00D+00 NAtFMM=   60 NAOKFM=F Big=F
 Integral buffers will be    131072 words long.
 Raffenetti 2 integral format.
 Two-electron integral symmetry is turned on.
 Nuclear repulsion after empirical dispersion term =     1280.2436066066 Hartrees.
 Force inversion solution in PCM.
 ------------------------------------------------------------------------------
 Polarizable Continuum Model (PCM)
 =================================
 Model                : PCM.
 Atomic radii         : UFF (Universal Force Field).
 Polarization charges : Total charges.
 Charge compensation  : None.
 Solution method      : Matrix inversion.
 Cavity type          : Scaled VdW (van der Waals Surface) (Alpha=1.100).
 Cavity algorithm     : GePol (No added spheres)
                        Default sphere list used, NSphG=   32.
                        Lebedev-Laikov grids with approx.  5.0 points / Ang**2.
                        Smoothing algorithm: York/Karplus (Gamma=1.0000).
                        Polarization charges: spherical gaussians, with
                                              point-specific exponents (IZeta= 3).
                        Self-potential: point-specific (ISelfS= 7).
                        Self-field    : sphere-specific E.n sum rule (ISelfD= 2).
 1st derivatives      : Analytical E(r).r(x)/FMM algorithm (CHGder, D1EAlg=3).
                        Cavity 1st derivative terms included.
 2nd derivatives      : Analytical E(r).r(xy)/FMM algorithm (CHGder, D2EAlg=3).
                        Cavity 2nd derivative terms included.
 Solvent              : Water, Eps=  78.355300 Eps(inf)=   1.777849
 ------------------------------------------------------------------------------
 One-electron integrals computed using PRISM.
   1 Symmetry operations used in ECPInt.
 ECPInt:  NShTT=   29403 NPrTT=   90090 LenC2=   27260 LenP2D=   60968.
 LDataN:  DoStor=T MaxTD1= 6 Len=  172
 NBasis=   598 RedAO= T EigKep=  7.18D-06  NBF=   598
 NBsUse=   598 1.00D-06 EigRej= -1.00D+00 NBFU=   598
 ExpMin= 9.52D-02 ExpMax= 6.95D+04 ExpMxC= 2.37D+03 IAcc=3 IRadAn=         5 AccDes= 0.00D+00
 Harris functional with IExCor= 4639 and IRadAn=       5 diagonalized for initial guess.
 HarFok:  IExCor= 4639 AccDes= 0.00D+00 IRadAn=         5 IDoV= 1 UseB2=F ITyADJ=14
 ICtDFT=  3500011 ScaDFX=  1.000000  1.000000  1.000000  1.000000
 FoFCou: FMM=F IPFlag=           0 FMFlag=      100000 FMFlg1=           0
         NFxFlg=           0 DoJE=T BraDBF=F KetDBF=T FulRan=T
         wScrn=  0.000000 ICntrl=       500 IOpCl=  0 I1Cent=   200000004 NGrid=           0
         NMat0=    1 NMatS0=      1 NMatT0=    0 NMatD0=    1 NMtDS0=    0 NMtDT0=    0
 Petite list used in FoFCou.
 Requested convergence on RMS density matrix=1.00D-08 within 128 cycles.
 Requested convergence on MAX density matrix=1.00D-06.
 Requested convergence on             energy=1.00D-06.
 No special actions if energy rises.
 Inv3:  Mode=1 IEnd=    16216875.
 Iteration    1 A*A^-1 deviation from unit magnitude is 5.11D-15 for   2325.
 Iteration    1 A*A^-1 deviation from orthogonality  is 1.86D-15 for   2325   2176.
 Iteration    1 A^-1*A deviation from unit magnitude is 4.88D-15 for   2325.
 Iteration    1 A^-1*A deviation from orthogonality  is 4.93D-15 for   1367   1336.
 Error on total polarization charges =  0.01460
 SCF Done:  E(RwB97XD) =  -1132.32726659     A.U. after   15 cycles
            NFock= 15  Conv=0.32D-08     -V/T= 2.0034
 DoSCS=F DFT=T ScalE2(SS,OS)=  1.000000  1.000000
 Range of M.O.s used for correlation:     1   598
 NBasis=   598 NAE=    64 NBE=    64 NFC=     0 NFV=     0
 NROrb=    598 NOA=    64 NOB=    64 NVA=   534 NVB=   534

 **** Warning!!: The largest alpha MO coefficient is  0.46051804D+02

   1 Symmetry operations used in ECPInt.
 ECPInt:  NShTT=   29403 NPrTT=   90090 LenC2=   27260 LenP2D=   60968.
 LDataN:  DoStor=T MaxTD1= 7 Len=  274
 Symmetrizing basis deriv contribution to polar:
 IMax=3 JMax=2 DiffMx= 0.00D+00
 G2DrvN: will do    33 centers at a time, making    1 passes.
 Calling FoFCou, ICntrl=  3107 FMM=F I1Cent=   0 AccDes= 0.00D+00.
 NEqPCM:  Using equilibrium solvation (IEInf=0, Eps=  78.3553, EpsInf=   1.7778)
 G2PCM: DoFxE=T DoFxN=T DoGrad=T DoDP/DQ/DG/TGxP=FFFF NFrqRd=   0 IEInf=0 SqF1=F DoCFld=F IF1Alg=4.
 End of G2Drv F.D. properties file   721 does not exist.
 End of G2Drv F.D. properties file   722 does not exist.
 End of G2Drv F.D. properties file   788 does not exist.
          IDoAtm=11111111111111111111111111111111
 NEqPCM:  Using equilibrium solvation (IEInf=0, Eps=  78.3553, EpsInf=   1.7778)
          Differentiating once with respect to nuclear coordinates.
 CalDSu exits because no D1Ps are significant.
          There are    99 degrees of freedom in the 1st order CPHF.  IDoFFX=6 NUNeed=     0.
     93 vectors produced by pass  0 Test12= 3.45D-14 1.01D-09 XBig12= 1.48D-01 1.20D-01.
 AX will form    93 AO Fock derivatives at one time.
     93 vectors produced by pass  1 Test12= 3.45D-14 1.01D-09 XBig12= 4.58D-02 4.44D-02.
     93 vectors produced by pass  2 Test12= 3.45D-14 1.01D-09 XBig12= 1.06D-03 5.36D-03.
     93 vectors produced by pass  3 Test12= 3.45D-14 1.01D-09 XBig12= 1.31D-05 4.50D-04.
     93 vectors produced by pass  4 Test12= 3.45D-14 1.01D-09 XBig12= 1.45D-07 3.86D-05.
     93 vectors produced by pass  5 Test12= 3.45D-14 1.01D-09 XBig12= 1.53D-09 3.34D-06.
     93 vectors produced by pass  6 Test12= 3.45D-14 1.01D-09 XBig12= 1.22D-11 3.30D-07.
     46 vectors produced by pass  7 Test12= 3.45D-14 1.01D-09 XBig12= 9.09D-14 2.13D-08.
     14 vectors produced by pass  8 Test12= 3.45D-14 1.01D-09 XBig12= 1.10D-14 1.09D-08.
      5 vectors produced by pass  9 Test12= 3.45D-14 1.01D-09 XBig12= 4.51D-15 6.57D-09.
      5 vectors produced by pass 10 Test12= 3.45D-14 1.01D-09 XBig12= 1.98D-15 4.09D-09.
      3 vectors produced by pass 11 Test12= 3.45D-14 1.01D-09 XBig12= 1.41D-15 2.89D-09.
      2 vectors produced by pass 12 Test12= 3.45D-14 1.01D-09 XBig12= 3.97D-16 1.39D-09.
 InvSVY:  IOpt=1 It=  1 EMax= 8.33D-16
 Solved reduced A of dimension   726 with    99 vectors.
 End of Minotr F.D. properties file   721 does not exist.
 End of Minotr F.D. properties file   722 does not exist.
 End of Minotr F.D. properties file   788 does not exist.

 **********************************************************************

            Population analysis using the SCF density.

 **********************************************************************

 Orbital symmetries:
       Occupied  (A) (A) (A) (A) (A) (A) (A) (A) (A) (A) (A) (A)
                 (A) (A) (A) (A) (A) (A) (A) (A) (A) (A) (A) (A)
                 (A) (A) (A) (A) (A) (A) (A) (A) (A) (A) (A) (A)
                 (A) (A) (A) (A) (A) (A) (A) (A) (A) (A) (A) (A)
                 (A) (A) (A) (A) (A) (A) (A) (A) (A) (A) (A) (A)
                 (A) (A) (A) (A)
       Virtual   (A) (A) (A) (A) (A) (A) (A) (A) (A) (A) (A) (A)
                 (A) (A) (A) (A) (A) (A) (A) (A) (A) (A) (A) (A)
                 (A) (A) (A) (A) (A) (A) (A) (A) (A) (A) (A) (A)
                 (A) (A) (A) (A) (A) (A) (A) (A) (A) (A) (A) (A)
                 (A) (A) (A) (A) (A) (A) (A) (A) (A) (A) (A) (A)
                 (A) (A) (A) (A) (A) (A) (A) (A) (A) (A) (A) (A)
                 (A) (A) (A) (A) (A) (A) (A) (A) (A) (A) (A) (A)
                 (A) (A) (A) (A) (A) (A) (A) (A) (A) (A) (A) (A)
                 (A) (A) (A) (A) (A) (A) (A) (A) (A) (A) (A) (A)
                 (A) (A) (A) (A) (A) (A) (A) (A) (A) (A) (A) (A)
                 (A) (A) (A) (A) (A) (A) (A) (A) (A) (A) (A) (A)
                 (A) (A) (A) (A) (A) (A) (A) (A) (A) (A) (A) (A)
                 (A) (A) (A) (A) (A) (A) (A) (A) (A) (A) (A) (A)
                 (A) (A) (A) (A) (A) (A) (A) (A) (A) (A) (A) (A)
                 (A) (A) (A) (A) (A) (A) (A) (A) (A) (A) (A) (A)
                 (A) (A) (A) (A) (A) (A) (A) (A) (A) (A) (A) (A)
                 (A) (A) (A) (A) (A) (A) (A) (A) (A) (A) (A) (A)
                 (A) (A) (A) (A) (A) (A) (A) (A) (A) (A) (A) (A)
                 (A) (A) (A) (A) (A) (A) (A) (A) (A) (A) (A) (A)
                 (A) (A) (A) (A) (A) (A) (A) (A) (A) (A) (A) (A)
                 (A) (A) (A) (A) (A) (A) (A) (A) (A) (A) (A) (A)
                 (A) (A) (A) (A) (A) (A) (A) (A) (A) (A) (A) (A)
                 (A) (A) (A) (A) (A) (A) (A) (A) (A) (A) (A) (A)
                 (A) (A) (A) (A) (A) (A) (A) (A) (A) (A) (A) (A)
                 (A) (A) (A) (A) (A) (A) (A) (A) (A) (A) (A) (A)
                 (A) (A) (A) (A) (A) (A) (A) (A) (A) (A) (A) (A)
                 (A) (A) (A) (A) (A) (A) (A) (A) (A) (A) (A) (A)
                 (A) (A) (A) (A) (A) (A) (A) (A) (A) (A) (A) (A)
                 (A) (A) (A) (A) (A) (A) (A) (A) (A) (A) (A) (A)
                 (A) (A) (A) (A) (A) (A) (A) (A) (A) (A) (A) (A)
                 (A) (A) (A) (A) (A) (A) (A) (A) (A) (A) (A) (A)
                 (A) (A) (A) (A) (A) (A) (A) (A) (A) (A) (A) (A)
                 (A) (A) (A) (A) (A) (A) (A) (A) (A) (A) (A) (A)
                 (A) (A) (A) (A) (A) (A) (A) (A) (A) (A) (A) (A)
                 (A) (A) (A) (A) (A) (A) (A) (A) (A) (A) (A) (A)
                 (A) (A) (A) (A) (A) (A) (A) (A) (A) (A) (A) (A)
                 (A) (A) (A) (A) (A) (A) (A) (A) (A) (A) (A) (A)
                 (A) (A) (A) (A) (A) (A) (A) (A) (A) (A) (A) (A)
                 (A) (A) (A) (A) (A) (A) (A) (A) (A) (A) (A) (A)
                 (A) (A) (A) (A) (A) (A) (A) (A) (A) (A) (A) (A)
                 (A) (A) (A) (A) (A) (A) (A) (A) (A) (A) (A) (A)
                 (A) (A) (A) (A) (A) (A) (A) (A) (A) (A) (A) (A)
                 (A) (A) (A) (A) (A) (A) (A) (A) (A) (A) (A) (A)
                 (A) (A) (A) (A) (A) (A) (A) (A) (A) (A) (A) (A)
                 (A) (A) (A) (A) (A) (A)
 The electronic state is 1-A.
 Alpha  occ. eigenvalues -- -101.69237 -19.27544 -19.20640 -14.49473 -10.40439
 Alpha  occ. eigenvalues --  -10.39388 -10.32309 -10.32031 -10.29643 -10.28728
 Alpha  occ. eigenvalues --  -10.28662 -10.28594 -10.28527 -10.28418 -10.28275
 Alpha  occ. eigenvalues --  -10.26426  -9.57852  -7.32460  -7.31655  -7.31609
 Alpha  occ. eigenvalues --   -1.18907  -1.09273  -1.05272  -0.97555  -0.95729
 Alpha  occ. eigenvalues --   -0.88748  -0.85087  -0.84658  -0.82367  -0.79486
 Alpha  occ. eigenvalues --   -0.78517  -0.70078  -0.69595  -0.68534  -0.63982
 Alpha  occ. eigenvalues --   -0.62903  -0.61473  -0.58888  -0.57278  -0.56655
 Alpha  occ. eigenvalues --   -0.56042  -0.55076  -0.54058  -0.53800  -0.52349
 Alpha  occ. eigenvalues --   -0.50738  -0.50431  -0.49869  -0.48551  -0.47905
 Alpha  occ. eigenvalues --   -0.46781  -0.46575  -0.46029  -0.44529  -0.43467
 Alpha  occ. eigenvalues --   -0.42343  -0.41986  -0.39635  -0.38892  -0.37610
 Alpha  occ. eigenvalues --   -0.35270  -0.33372  -0.32069  -0.27813
 Alpha virt. eigenvalues --    0.05278   0.05503   0.06234   0.08413   0.10096
 Alpha virt. eigenvalues --    0.12845   0.13483   0.14359   0.14728   0.15649
 Alpha virt. eigenvalues --    0.16308   0.16730   0.17386   0.18174   0.18724
 Alpha virt. eigenvalues --    0.19524   0.19649   0.20231   0.20760   0.21303
 Alpha virt. eigenvalues --    0.21468   0.22009   0.22324   0.23052   0.23476
 Alpha virt. eigenvalues --    0.24875   0.26073   0.26872   0.27369   0.28097
 Alpha virt. eigenvalues --    0.28754   0.29473   0.30432   0.30822   0.31040
 Alpha virt. eigenvalues --    0.32263   0.32554   0.32852   0.33025   0.33998
 Alpha virt. eigenvalues --    0.34315   0.35004   0.35270   0.36643   0.36969
 Alpha virt. eigenvalues --    0.37680   0.38763   0.39005   0.40021   0.40295
 Alpha virt. eigenvalues --    0.41275   0.41382   0.42011   0.42705   0.43540
 Alpha virt. eigenvalues --    0.43678   0.44685   0.44956   0.45585   0.46242
 Alpha virt. eigenvalues --    0.46890   0.48157   0.48382   0.48728   0.48901
 Alpha virt. eigenvalues --    0.49297   0.49515   0.50321   0.50545   0.51225
 Alpha virt. eigenvalues --    0.51811   0.52381   0.52482   0.53594   0.53783
 Alpha virt. eigenvalues --    0.54454   0.54880   0.54925   0.55543   0.55784
 Alpha virt. eigenvalues --    0.57252   0.57714   0.58299   0.58726   0.59173
 Alpha virt. eigenvalues --    0.59431   0.59654   0.60318   0.61107   0.61684
 Alpha virt. eigenvalues --    0.62467   0.64084   0.65185   0.66483   0.67044
 Alpha virt. eigenvalues --    0.67832   0.68533   0.69904   0.70504   0.72045
 Alpha virt. eigenvalues --    0.72704   0.73380   0.74454   0.74782   0.75504
 Alpha virt. eigenvalues --    0.76288   0.77473   0.78439   0.78843   0.79599
 Alpha virt. eigenvalues --    0.80411   0.82438   0.82812   0.83430   0.83726
 Alpha virt. eigenvalues --    0.84752   0.86220   0.86611   0.88253   0.90010
 Alpha virt. eigenvalues --    0.90425   0.91643   0.92857   0.93298   0.94820
 Alpha virt. eigenvalues --    0.95874   0.96055   0.96703   0.97654   0.98046
 Alpha virt. eigenvalues --    0.99179   1.00164   1.00458   1.01532   1.02210
 Alpha virt. eigenvalues --    1.03002   1.03696   1.04841   1.05276   1.08274
 Alpha virt. eigenvalues --    1.09257   1.10103   1.11227   1.13815   1.15224
 Alpha virt. eigenvalues --    1.15473   1.16394   1.16547   1.17561   1.18616
 Alpha virt. eigenvalues --    1.19146   1.21389   1.22080   1.23203   1.24347
 Alpha virt. eigenvalues --    1.25203   1.27171   1.28029   1.29277   1.30706
 Alpha virt. eigenvalues --    1.33029   1.34024   1.34122   1.35069   1.35457
 Alpha virt. eigenvalues --    1.36032   1.38072   1.38419   1.40179   1.40442
 Alpha virt. eigenvalues --    1.41991   1.43386   1.45980   1.47369   1.49242
 Alpha virt. eigenvalues --    1.51466   1.52657   1.52963   1.53859   1.54091
 Alpha virt. eigenvalues --    1.56350   1.57214   1.57336   1.57733   1.58947
 Alpha virt. eigenvalues --    1.59984   1.60328   1.60691   1.61508   1.61951
 Alpha virt. eigenvalues --    1.62924   1.64026   1.65396   1.65950   1.66855
 Alpha virt. eigenvalues --    1.67487   1.67687   1.68713   1.69490   1.69817
 Alpha virt. eigenvalues --    1.70998   1.72279   1.73147   1.73934   1.75194
 Alpha virt. eigenvalues --    1.75840   1.76433   1.76828   1.78798   1.79108
 Alpha virt. eigenvalues --    1.80865   1.81397   1.84279   1.84667   1.85754
 Alpha virt. eigenvalues --    1.85904   1.85978   1.89032   1.89875   1.90430
 Alpha virt. eigenvalues --    1.91944   1.93315   1.93671   1.95037   1.95843
 Alpha virt. eigenvalues --    1.97653   1.98221   1.99246   1.99606   2.01055
 Alpha virt. eigenvalues --    2.03124   2.03255   2.03808   2.05530   2.05849
 Alpha virt. eigenvalues --    2.07447   2.08014   2.08789   2.10148   2.11763
 Alpha virt. eigenvalues --    2.13065   2.13475   2.13684   2.15383   2.16060
 Alpha virt. eigenvalues --    2.16659   2.16945   2.17995   2.18785   2.19356
 Alpha virt. eigenvalues --    2.21058   2.21320   2.21727   2.24008   2.24909
 Alpha virt. eigenvalues --    2.26267   2.27450   2.27719   2.29141   2.30354
 Alpha virt. eigenvalues --    2.31465   2.33299   2.33890   2.34640   2.35411
 Alpha virt. eigenvalues --    2.35947   2.38187   2.38536   2.39005   2.40848
 Alpha virt. eigenvalues --    2.41555   2.42781   2.43289   2.44229   2.45933
 Alpha virt. eigenvalues --    2.47007   2.47854   2.48769   2.49685   2.51447
 Alpha virt. eigenvalues --    2.52046   2.52293   2.54397   2.54795   2.57135
 Alpha virt. eigenvalues --    2.58675   2.60176   2.61209   2.62373   2.62864
 Alpha virt. eigenvalues --    2.63582   2.64936   2.65546   2.66566   2.66845
 Alpha virt. eigenvalues --    2.67125   2.68892   2.69663   2.70161   2.70465
 Alpha virt. eigenvalues --    2.72144   2.73041   2.73598   2.74721   2.76151
 Alpha virt. eigenvalues --    2.76927   2.77494   2.78149   2.78946   2.80052
 Alpha virt. eigenvalues --    2.81907   2.82113   2.83030   2.84009   2.84596
 Alpha virt. eigenvalues --    2.85901   2.87116   2.87449   2.88989   2.89278
 Alpha virt. eigenvalues --    2.90040   2.92913   2.93145   2.94028   2.94508
 Alpha virt. eigenvalues --    2.95008   2.95228   2.96774   2.98488   2.98855
 Alpha virt. eigenvalues --    3.00783   3.01771   3.02466   3.05768   3.08484
 Alpha virt. eigenvalues --    3.09662   3.10816   3.11446   3.12166   3.13133
 Alpha virt. eigenvalues --    3.13728   3.14633   3.15479   3.16065   3.17801
 Alpha virt. eigenvalues --    3.18601   3.19043   3.20549   3.21778   3.22255
 Alpha virt. eigenvalues --    3.23189   3.24076   3.24769   3.25347   3.26586
 Alpha virt. eigenvalues --    3.27808   3.28516   3.30415   3.30963   3.31775
 Alpha virt. eigenvalues --    3.32978   3.33828   3.34866   3.35699   3.36566
 Alpha virt. eigenvalues --    3.37113   3.38115   3.38470   3.39348   3.40451
 Alpha virt. eigenvalues --    3.40706   3.41487   3.42797   3.43169   3.44385
 Alpha virt. eigenvalues --    3.45654   3.46310   3.46955   3.48345   3.48716
 Alpha virt. eigenvalues --    3.50054   3.50296   3.51213   3.51361   3.53821
 Alpha virt. eigenvalues --    3.54715   3.55234   3.56866   3.57326   3.58225
 Alpha virt. eigenvalues --    3.58999   3.59981   3.60546   3.62287   3.62742
 Alpha virt. eigenvalues --    3.63516   3.64861   3.65981   3.66283   3.67939
 Alpha virt. eigenvalues --    3.70266   3.70645   3.70956   3.72191   3.73617
 Alpha virt. eigenvalues --    3.75257   3.75868   3.79578   3.80084   3.80761
 Alpha virt. eigenvalues --    3.83137   3.85042   3.87309   3.89137   3.90798
 Alpha virt. eigenvalues --    3.92001   3.93906   3.94028   3.95699   3.98622
 Alpha virt. eigenvalues --    4.01343   4.01701   4.04408   4.05992   4.07364
 Alpha virt. eigenvalues --    4.10800   4.12180   4.13945   4.15646   4.18006
 Alpha virt. eigenvalues --    4.20258   4.23078   4.23733   4.24532   4.26285
 Alpha virt. eigenvalues --    4.27981   4.29917   4.31101   4.31730   4.33407
 Alpha virt. eigenvalues --    4.34412   4.35028   4.35465   4.38011   4.39125
 Alpha virt. eigenvalues --    4.40429   4.42529   4.44724   4.45110   4.46188
 Alpha virt. eigenvalues --    4.47588   4.50382   4.55031   4.57351   4.58230
 Alpha virt. eigenvalues --    4.62073   4.63772   4.65132   4.65341   4.68995
 Alpha virt. eigenvalues --    4.74430   4.77017   4.79099   4.80563   4.83533
 Alpha virt. eigenvalues --    4.84734   4.89721   4.95029   4.96784   4.98571
 Alpha virt. eigenvalues --    5.00336   5.02252   5.06871   5.10347   5.10851
 Alpha virt. eigenvalues --    5.16602   5.18370   5.20811   5.23021   5.26286
 Alpha virt. eigenvalues --    5.28468   5.32683   5.33888   5.36223   5.37363
 Alpha virt. eigenvalues --    5.38683   5.41920   5.51325   5.52163   5.56726
 Alpha virt. eigenvalues --    5.58148   5.61948   5.62409   5.69481   5.72396
 Alpha virt. eigenvalues --    5.78643   5.83404   5.88826   5.99265   6.05091
 Alpha virt. eigenvalues --    6.24368   6.29596   6.41247   6.48763   6.49796
 Alpha virt. eigenvalues --    6.67801   6.78128   6.85600   6.90322   7.00147
 Alpha virt. eigenvalues --    7.02402   7.17845   7.24742   7.41793   7.54893
 Alpha virt. eigenvalues --   10.90193  10.96377  11.45755  22.25164  22.50083
 Alpha virt. eigenvalues --   22.50917  22.57570  22.68192  22.74028  22.75418
 Alpha virt. eigenvalues --   22.90154  22.96026  23.10174  23.35142  23.60668
 Alpha virt. eigenvalues --   25.79719  32.21392  44.14574  44.35953
          Condensed to atoms (all electrons):
               1          2          3          4          5          6
     1  C    6.595476   0.226219  -0.129096   0.406106  -0.000528  -0.004116
     2  C    0.226219   4.458512   0.634244  -0.048935  -0.003833   0.000540
     3  O   -0.129096   0.634244   8.090996  -0.008065   0.003457   0.000113
     4  C    0.406106  -0.048935  -0.008065   5.011027  -0.019790   0.003936
     5  C   -0.000528  -0.003833   0.003457  -0.019790   4.902202   0.411822
     6  H   -0.004116   0.000540   0.000113   0.003936   0.411822   0.488683
     7  H    0.046198  -0.011345  -0.002266  -0.012516   0.414525  -0.023713
     8  H   -0.003880   0.001405  -0.000567  -0.000811   0.413407  -0.014271
     9  N   -0.156075   0.016143   0.000638   0.108184   0.238828  -0.021979
    10  H   -0.009564   0.000136  -0.000050   0.002461  -0.019982  -0.007257
    11  H    0.013743  -0.001159  -0.000029  -0.007590  -0.018812  -0.002178
    12  Cl  -0.125768   0.001282  -0.000182   0.365472   0.003555  -0.000250
    13  C   -0.049173  -0.020574  -0.021640   0.245606   0.004439   0.000001
    14  H   -0.029016   0.002446   0.008518  -0.015606   0.005440   0.000359
    15  H   -0.001107  -0.003077   0.000228  -0.049885  -0.000667   0.000016
    16  H    0.020006   0.000357   0.002965  -0.039077  -0.001963  -0.000050
    17  C    0.031193  -0.068054   0.014865  -0.092965  -0.006904   0.000919
    18  C   -0.159534   0.000634  -0.001217  -0.005716   0.005263  -0.000285
    19  C    0.018951  -0.001876  -0.000023  -0.000398   0.000604  -0.000109
    20  C   -0.008063   0.001226   0.000000  -0.000354  -0.000015   0.000004
    21  C    0.009738  -0.003106  -0.000008  -0.000824   0.000035  -0.000002
    22  C   -0.152210   0.008337  -0.000464   0.003221  -0.000373   0.000042
    23  H   -0.002519   0.001599  -0.000056  -0.004146  -0.002183  -0.000387
    24  H   -0.000478   0.000004   0.000000   0.000063   0.000016   0.000005
    25  H    0.000055   0.000007   0.000000   0.000004  -0.000000   0.000000
    26  H   -0.000287  -0.000037  -0.000000  -0.000029  -0.000000  -0.000000
    27  H   -0.000419   0.003323  -0.000069   0.003355  -0.000009   0.000001
    28  O   -0.187254   0.406444  -0.092977  -0.003576  -0.000346  -0.000004
    29  C    0.009861  -0.050767   0.004485  -0.000578  -0.000054   0.000001
    30  H   -0.003272  -0.008090   0.006164  -0.000408  -0.000019  -0.000000
    31  H   -0.002236  -0.007625   0.006145   0.000241   0.000118   0.000000
    32  H    0.004091   0.003230   0.002437   0.000166  -0.000006  -0.000000
               7          8          9         10         11         12
     1  C    0.046198  -0.003880  -0.156075  -0.009564   0.013743  -0.125768
     2  C   -0.011345   0.001405   0.016143   0.000136  -0.001159   0.001282
     3  O   -0.002266  -0.000567   0.000638  -0.000050  -0.000029  -0.000182
     4  C   -0.012516  -0.000811   0.108184   0.002461  -0.007590   0.365472
     5  C    0.414525   0.413407   0.238828  -0.019982  -0.018812   0.003555
     6  H   -0.023713  -0.014271  -0.021979  -0.007257  -0.002178  -0.000250
     7  H    0.513221  -0.022558  -0.051544  -0.002018   0.005719   0.000967
     8  H   -0.022558   0.488542  -0.028385   0.004533  -0.006505   0.000071
     9  N   -0.051544  -0.028385   6.561907   0.349482   0.349968  -0.072085
    10  H   -0.002018   0.004533   0.349482   0.404090  -0.017541   0.004129
    11  H    0.005719  -0.006505   0.349968  -0.017541   0.394887   0.004172
    12  Cl   0.000967   0.000071  -0.072085   0.004129   0.004172  16.990502
    13  C   -0.002603   0.001051  -0.021852   0.005011  -0.007702  -0.052662
    14  H   -0.001454  -0.002435  -0.002199  -0.000257  -0.000460   0.005251
    15  H   -0.000115   0.000024   0.005643  -0.000235   0.000017   0.002441
    16  H    0.000083   0.000048  -0.003850   0.000217   0.001311  -0.002608
    17  C   -0.012192   0.000152   0.020788  -0.001990  -0.001243  -0.001193
    18  C    0.003404  -0.000061   0.004688   0.002476   0.000438   0.000113
    19  C    0.000629  -0.000006  -0.000534   0.000938   0.000032   0.001148
    20  C   -0.000024   0.000000   0.000153  -0.000090  -0.000003  -0.000757
    21  C    0.000037  -0.000001  -0.000199   0.000014   0.000005   0.003039
    22  C   -0.000634   0.000014   0.003640  -0.000153  -0.000176   0.006921
    23  H   -0.001906   0.000398  -0.000389   0.000018   0.000057   0.000465
    24  H   -0.000015  -0.000000   0.000022  -0.000021  -0.000002   0.000012
    25  H   -0.000000  -0.000000   0.000000  -0.000001  -0.000000  -0.000008
    26  H    0.000000   0.000000  -0.000002   0.000001   0.000000  -0.000001
    27  H   -0.000018  -0.000000   0.000273  -0.000028  -0.000007   0.002753
    28  O    0.000534   0.000002   0.000051  -0.000005   0.000002  -0.000159
    29  C   -0.000086   0.000001   0.000052  -0.000002  -0.000001   0.000020
    30  H    0.000014   0.000001   0.000005   0.000000  -0.000000  -0.000001
    31  H   -0.000030  -0.000005  -0.000015   0.000000   0.000000   0.000001
    32  H   -0.000000   0.000000   0.000000   0.000000   0.000000  -0.000000
              13         14         15         16         17         18
     1  C   -0.049173  -0.029016  -0.001107   0.020006   0.031193  -0.159534
     2  C   -0.020574   0.002446  -0.003077   0.000357  -0.068054   0.000634
     3  O   -0.021640   0.008518   0.000228   0.002965   0.014865  -0.001217
     4  C    0.245606  -0.015606  -0.049885  -0.039077  -0.092965  -0.005716
     5  C    0.004439   0.005440  -0.000667  -0.001963  -0.006904   0.005263
     6  H    0.000001   0.000359   0.000016  -0.000050   0.000919  -0.000285
     7  H   -0.002603  -0.001454  -0.000115   0.000083  -0.012192   0.003404
     8  H    0.001051  -0.002435   0.000024   0.000048   0.000152  -0.000061
     9  N   -0.021852  -0.002199   0.005643  -0.003850   0.020788   0.004688
    10  H    0.005011  -0.000257  -0.000235   0.000217  -0.001990   0.002476
    11  H   -0.007702  -0.000460   0.000017   0.001311  -0.001243   0.000438
    12  Cl  -0.052662   0.005251   0.002441  -0.002608  -0.001193   0.000113
    13  C    5.035303   0.408127   0.427479   0.392437   0.010839   0.001345
    14  H    0.408127   0.507190  -0.017102  -0.020096  -0.001627  -0.000148
    15  H    0.427479  -0.017102   0.507121  -0.019062   0.000572  -0.000009
    16  H    0.392437  -0.020096  -0.019062   0.525940  -0.000055   0.000033
    17  C    0.010839  -0.001627   0.000572  -0.000055   5.436489   0.242765
    18  C    0.001345  -0.000148  -0.000009   0.000033   0.242765   5.371655
    19  C    0.000092  -0.000001  -0.000001  -0.000002   0.052573   0.363440
    20  C   -0.000021   0.000000   0.000001   0.000001  -0.126479   0.063953
    21  C    0.000064  -0.000001  -0.000002  -0.000002   0.066510  -0.119598
    22  C   -0.000112   0.000020   0.000111  -0.000083   0.301832   0.095317
    23  H    0.000070  -0.000045  -0.000006   0.000007  -0.069632   0.439579
    24  H   -0.000001   0.000000  -0.000000   0.000000   0.013502  -0.056482
    25  H    0.000000   0.000000   0.000000   0.000000  -0.004088   0.012453
    26  H    0.000001  -0.000000  -0.000000   0.000000   0.017087  -0.005696
    27  H   -0.000161   0.000005   0.000063   0.000001  -0.084293   0.019439
    28  O   -0.000420   0.000216  -0.000090   0.000055  -0.028209   0.033276
    29  C   -0.000106  -0.000013   0.000027  -0.000010  -0.002722   0.000195
    30  H    0.000091  -0.000030   0.000031   0.000000   0.000421   0.000426
    31  H   -0.000094   0.000037  -0.000011  -0.000002   0.000083  -0.000471
    32  H    0.000005  -0.000000  -0.000000  -0.000000  -0.001278  -0.000194
              19         20         21         22         23         24
     1  C    0.018951  -0.008063   0.009738  -0.152210  -0.002519  -0.000478
     2  C   -0.001876   0.001226  -0.003106   0.008337   0.001599   0.000004
     3  O   -0.000023   0.000000  -0.000008  -0.000464  -0.000056   0.000000
     4  C   -0.000398  -0.000354  -0.000824   0.003221  -0.004146   0.000063
     5  C    0.000604  -0.000015   0.000035  -0.000373  -0.002183   0.000016
     6  H   -0.000109   0.000004  -0.000002   0.000042  -0.000387   0.000005
     7  H    0.000629  -0.000024   0.000037  -0.000634  -0.001906  -0.000015
     8  H   -0.000006   0.000000  -0.000001   0.000014   0.000398  -0.000000
     9  N   -0.000534   0.000153  -0.000199   0.003640  -0.000389   0.000022
    10  H    0.000938  -0.000090   0.000014  -0.000153   0.000018  -0.000021
    11  H    0.000032  -0.000003   0.000005  -0.000176   0.000057  -0.000002
    12  Cl   0.001148  -0.000757   0.003039   0.006921   0.000465   0.000012
    13  C    0.000092  -0.000021   0.000064  -0.000112   0.000070  -0.000001
    14  H   -0.000001   0.000000  -0.000001   0.000020  -0.000045   0.000000
    15  H   -0.000001   0.000001  -0.000002   0.000111  -0.000006  -0.000000
    16  H   -0.000002   0.000001  -0.000002  -0.000083   0.000007   0.000000
    17  C    0.052573  -0.126479   0.066510   0.301832  -0.069632   0.013502
    18  C    0.363440   0.063953  -0.119598   0.095317   0.439579  -0.056482
    19  C    5.030847   0.384254   0.045139  -0.097442  -0.026285   0.452700
    20  C    0.384254   5.041884   0.371554   0.051466   0.007957  -0.056157
    21  C    0.045139   0.371554   5.047597   0.378995  -0.002660   0.010986
    22  C   -0.097442   0.051466   0.378995   5.213186   0.007575  -0.003587
    23  H   -0.026285   0.007957  -0.002660   0.007575   0.490554  -0.005713
    24  H    0.452700  -0.056157   0.010986  -0.003587  -0.005713   0.513624
    25  H   -0.059302   0.456594  -0.058976   0.011638  -0.000095  -0.006780
    26  H    0.013119  -0.062077   0.461832  -0.065195   0.000026  -0.000065
    27  H   -0.006211   0.013962  -0.060351   0.465887   0.000004   0.000021
    28  O   -0.004255   0.002302  -0.004368   0.031093   0.001022  -0.000036
    29  C    0.000023  -0.000075   0.000034   0.000207   0.000041   0.000001
    30  H   -0.000016   0.000012  -0.000038  -0.000383   0.000006  -0.000000
    31  H   -0.000026   0.000005  -0.000009   0.000386   0.000012   0.000000
    32  H    0.000064  -0.000027   0.000074  -0.000268  -0.000007   0.000001
              25         26         27         28         29         30
     1  C    0.000055  -0.000287  -0.000419  -0.187254   0.009861  -0.003272
     2  C    0.000007  -0.000037   0.003323   0.406444  -0.050767  -0.008090
     3  O    0.000000  -0.000000  -0.000069  -0.092977   0.004485   0.006164
     4  C    0.000004  -0.000029   0.003355  -0.003576  -0.000578  -0.000408
     5  C   -0.000000  -0.000000  -0.000009  -0.000346  -0.000054  -0.000019
     6  H    0.000000  -0.000000   0.000001  -0.000004   0.000001  -0.000000
     7  H   -0.000000   0.000000  -0.000018   0.000534  -0.000086   0.000014
     8  H   -0.000000   0.000000  -0.000000   0.000002   0.000001   0.000001
     9  N    0.000000  -0.000002   0.000273   0.000051   0.000052   0.000005
    10  H   -0.000001   0.000001  -0.000028  -0.000005  -0.000002   0.000000
    11  H   -0.000000   0.000000  -0.000007   0.000002  -0.000001  -0.000000
    12  Cl  -0.000008  -0.000001   0.002753  -0.000159   0.000020  -0.000001
    13  C    0.000000   0.000001  -0.000161  -0.000420  -0.000106   0.000091
    14  H    0.000000  -0.000000   0.000005   0.000216  -0.000013  -0.000030
    15  H    0.000000  -0.000000   0.000063  -0.000090   0.000027   0.000031
    16  H    0.000000   0.000000   0.000001   0.000055  -0.000010   0.000000
    17  C   -0.004088   0.017087  -0.084293  -0.028209  -0.002722   0.000421
    18  C    0.012453  -0.005696   0.019439   0.033276   0.000195   0.000426
    19  C   -0.059302   0.013119  -0.006211  -0.004255   0.000023  -0.000016
    20  C    0.456594  -0.062077   0.013962   0.002302  -0.000075   0.000012
    21  C   -0.058976   0.461832  -0.060351  -0.004368   0.000034  -0.000038
    22  C    0.011638  -0.065195   0.465887   0.031093   0.000207  -0.000383
    23  H   -0.000095   0.000026   0.000004   0.001022   0.000041   0.000006
    24  H   -0.006780  -0.000065   0.000021  -0.000036   0.000001  -0.000000
    25  H    0.514027  -0.006980  -0.000046   0.000005  -0.000000   0.000000
    26  H   -0.006980   0.518119  -0.007978  -0.000028   0.000001  -0.000000
    27  H   -0.000046  -0.007978   0.516363   0.000257   0.000083   0.000062
    28  O    0.000005  -0.000028   0.000257   8.038599   0.226743  -0.038685
    29  C   -0.000000   0.000001   0.000083   0.226743   4.775794   0.421162
    30  H    0.000000  -0.000000   0.000062  -0.038685   0.421162   0.566466
    31  H    0.000000  -0.000000  -0.000004  -0.039405   0.420115  -0.043842
    32  H   -0.000000   0.000001  -0.000007  -0.031999   0.399433  -0.022660
              31         32
     1  C   -0.002236   0.004091
     2  C   -0.007625   0.003230
     3  O    0.006145   0.002437
     4  C    0.000241   0.000166
     5  C    0.000118  -0.000006
     6  H    0.000000  -0.000000
     7  H   -0.000030  -0.000000
     8  H   -0.000005   0.000000
     9  N   -0.000015   0.000000
    10  H    0.000000   0.000000
    11  H    0.000000   0.000000
    12  Cl   0.000001  -0.000000
    13  C   -0.000094   0.000005
    14  H    0.000037  -0.000000
    15  H   -0.000011  -0.000000
    16  H   -0.000002  -0.000000
    17  C    0.000083  -0.001278
    18  C   -0.000471  -0.000194
    19  C   -0.000026   0.000064
    20  C    0.000005  -0.000027
    21  C   -0.000009   0.000074
    22  C    0.000386  -0.000268
    23  H    0.000012  -0.000007
    24  H    0.000000   0.000001
    25  H    0.000000  -0.000000
    26  H   -0.000000   0.000001
    27  H   -0.000004  -0.000007
    28  O   -0.039405  -0.031999
    29  C    0.420115   0.399433
    30  H   -0.043842  -0.022660
    31  H    0.566684  -0.022610
    32  H   -0.022610   0.535292
 Mulliken charges:
               1
     1  C   -0.357039
     2  C    0.462391
     3  O   -0.518544
     4  C    0.161428
     5  C   -0.328226
     6  H    0.168160
     7  H    0.159706
     8  H    0.169835
     9  N   -0.301357
    10  H    0.285690
    11  H    0.293058
    12  Cl  -0.136639
    13  C   -0.354839
    14  H    0.152882
    15  H    0.147598
    16  H    0.143398
    17  C    0.292335
    18  C   -0.311480
    19  C   -0.168064
    20  C   -0.141186
    21  C   -0.145508
    22  C   -0.258809
    23  H    0.166638
    24  H    0.138379
    25  H    0.141494
    26  H    0.138186
    27  H    0.133753
    28  O   -0.308786
    29  C   -0.203862
    30  H    0.122586
    31  H    0.122558
    32  H    0.134264
 Sum of Mulliken charges =  -0.00000
 Mulliken charges with hydrogens summed into heavy atoms:
               1
     1  C   -0.357039
     2  C    0.462391
     3  O   -0.518544
     4  C    0.161428
     5  C    0.169476
     9  N    0.277391
    12  Cl  -0.136639
    13  C    0.089039
    17  C    0.292335
    18  C   -0.144842
    19  C   -0.029685
    20  C    0.000308
    21  C   -0.007322
    22  C   -0.125056
    28  O   -0.308786
    29  C    0.175546
 APT charges:
               1
     1  C   -0.163906
     2  C   -0.191345
     3  O   -0.031008
     4  C   -0.010946
     5  C   -1.106089
     6  H    0.623075
     7  H    0.035553
     8  H    0.568929
     9  N   -0.814594
    10  H    0.343255
    11  H    0.851305
    12  Cl   0.089569
    13  C   -1.333733
    14  H    0.357341
    15  H    0.383383
    16  H    0.585864
    17  C   -0.161146
    18  C   -0.607589
    19  C   -0.607269
    20  C   -0.643061
    21  C   -0.593017
    22  C   -0.605095
    23  H    0.307222
    24  H    0.701950
    25  H    0.938396
    26  H    0.762906
    27  H    0.345815
    28  O   -0.152048
    29  C   -1.334252
    30  H    0.468279
    31  H    0.417992
    32  H    0.574267
 Sum of APT charges =  -0.00000
 APT charges with hydrogens summed into heavy atoms:
               1
     1  C   -0.163906
     2  C   -0.191345
     3  O   -0.031008
     4  C   -0.010946
     5  C    0.121468
     9  N    0.379966
    12  Cl   0.089569
    13  C   -0.007146
    17  C   -0.161146
    18  C   -0.300367
    19  C    0.094680
    20  C    0.295335
    21  C    0.169888
    22  C   -0.259280
    28  O   -0.152048
    29  C    0.126286
 Electronic spatial extent (au):  <R**2>=           3872.8878
 Charge=             -0.0000 electrons
 Dipole moment (field-independent basis, Debye):
    X=             -1.7191    Y=             -4.4691    Z=              5.2090  Tot=              7.0755
 Quadrupole moment (field-independent basis, Debye-Ang):
   XX=            -95.9928   YY=            -99.6761   ZZ=            -91.7488
   XY=             12.2035   XZ=             -7.9376   YZ=             -7.1128
 Traceless Quadrupole moment (field-independent basis, Debye-Ang):
   XX=             -0.1869   YY=             -3.8702   ZZ=              4.0571
   XY=             12.2035   XZ=             -7.9376   YZ=             -7.1128
 Octapole moment (field-independent basis, Debye-Ang**2):
  XXX=             -6.3952  YYY=             18.2146  ZZZ=             20.8792  XYY=            -12.7147
  XXY=            -44.1279  XXZ=             15.7154  XZZ=            -10.2962  YZZ=             -8.4426
  YYZ=             19.2431  XYZ=              4.4398
 Hexadecapole moment (field-independent basis, Debye-Ang**3):
 XXXX=          -2296.4572 YYYY=          -1638.3315 ZZZZ=           -760.0845 XXXY=             62.4339
 XXXZ=            -45.0098 YYYX=             85.3400 YYYZ=            -27.5578 ZZZX=            -30.5519
 ZZZY=            -33.8563 XXYY=           -753.2884 XXZZ=           -493.6262 YYZZ=           -430.3735
 XXYZ=            -16.5665 YYXZ=            -33.7833 ZZXY=              7.6250
 N-N= 1.280243606607D+03 E-N=-5.222843773214D+03  KE= 1.128459422903D+03
  Exact polarizability:   0.000   0.000   0.000   0.000   0.000   0.000
 Approx polarizability: 202.971  -5.805 182.467  -3.882  -4.709 191.330
   1 Symmetry operations used in ECPInt.
 ECPInt:  NShTT=   29403 NPrTT=   90090 LenC2=   27260 LenP2D=   60968.
 LDataN:  DoStor=T MaxTD1= 8 Len=  415
 D2PCM: PCM CHGder 2nd derivatives, FixD1E=F FixD2E=F DoIter=F DoCFld=F I1PDM=0
 Calling FoFJK, ICntrl=    100147 FMM=F ISym2X=0 I1Cent= 0 IOpClX= 0 NMat=1 NMatS=1 NMatT=0.
 ***** Axes restored to original set *****
 -------------------------------------------------------------------
 Center     Atomic                   Forces (Hartrees/Bohr)
 Number     Number              X              Y              Z
 -------------------------------------------------------------------
      1        6           0.000008632   -0.000003376    0.000001781
      2        6          -0.000006571    0.000005693   -0.000004316
      3        8           0.000000841   -0.000001209    0.000000326
      4        6          -0.000004174   -0.000001528   -0.000001436
      5        6          -0.000002761    0.000001091   -0.000000873
      6        1          -0.000000921   -0.000002516   -0.000001632
      7        1          -0.000000496   -0.000002686   -0.000000918
      8        1           0.000001767   -0.000003486   -0.000002078
      9        7          -0.000000184   -0.000004237   -0.000002384
     10        1           0.000002596    0.000000497    0.000000663
     11        1           0.000003715   -0.000001726   -0.000001990
     12       17           0.000002070   -0.000001628   -0.000000889
     13        6           0.000003296   -0.000004648   -0.000000861
     14        1          -0.000000842   -0.000003249   -0.000002087
     15        1           0.000001595   -0.000000419   -0.000003079
     16        1           0.000004451   -0.000001001   -0.000001021
     17        6          -0.000008316   -0.000001024   -0.000002609
     18        6          -0.000002581    0.000000425    0.000009354
     19        6           0.000005360    0.000001989    0.000002512
     20        6           0.000001135    0.000001410    0.000009114
     21        6           0.000009890    0.000002830   -0.000003402
     22        6          -0.000002855    0.000003000    0.000000413
     23        1           0.000000320    0.000000240   -0.000002566
     24        1          -0.000001298    0.000002940   -0.000000801
     25        1          -0.000001166    0.000004968    0.000001417
     26        1          -0.000001122    0.000003923    0.000005065
     27        1           0.000001533    0.000002201   -0.000000029
     28        8          -0.000001127    0.000005689    0.000001983
     29        6          -0.000001188   -0.000004066    0.000004752
     30        1          -0.000004106    0.000001130   -0.000003842
     31        1          -0.000003984   -0.000000994   -0.000000437
     32        1          -0.000003510   -0.000000230   -0.000000128
 -------------------------------------------------------------------
 Cartesian Forces:  Max     0.000009890 RMS     0.000003330
 FormGI is forming the generalized inverse of G from B-inverse, IUseBI=4.

 GradGradGradGradGradGradGradGradGradGradGradGradGradGradGradGradGradGrad
 Berny optimization.
 Internal  Forces:  Max     0.000008990 RMS     0.000001688
 Search for a saddle point.
 Step number   1 out of a maximum of   70
 All quantities printed in internal units (Hartrees-Bohrs-Radians)
 Swapping is turned off.
 Second derivative matrix not updated -- analytic derivatives used.
 ITU=  0
     Eigenvalues ---   -0.03081   0.00156   0.00227   0.00354   0.00383
     Eigenvalues ---    0.00530   0.00735   0.01085   0.01556   0.01662
     Eigenvalues ---    0.01769   0.01816   0.01870   0.02330   0.02474
     Eigenvalues ---    0.02522   0.02619   0.02666   0.02905   0.03001
     Eigenvalues ---    0.03448   0.04383   0.04418   0.04619   0.04848
     Eigenvalues ---    0.05222   0.05546   0.07504   0.08031   0.08327
     Eigenvalues ---    0.08539   0.08558   0.10710   0.10867   0.11363
     Eigenvalues ---    0.11831   0.12326   0.12562   0.12691   0.12905
     Eigenvalues ---    0.13352   0.14285   0.14521   0.15953   0.17409
     Eigenvalues ---    0.17559   0.18154   0.18259   0.18457   0.18660
     Eigenvalues ---    0.19099   0.19261   0.19513   0.19539   0.19866
     Eigenvalues ---    0.21827   0.23988   0.25189   0.27309   0.28182
     Eigenvalues ---    0.31595   0.32211   0.33892   0.33933   0.33967
     Eigenvalues ---    0.34484   0.34660   0.34908   0.34923   0.35193
     Eigenvalues ---    0.35636   0.35904   0.36154   0.36192   0.36232
     Eigenvalues ---    0.36410   0.36862   0.37872   0.41913   0.42125
     Eigenvalues ---    0.43150   0.45017   0.45277   0.45346   0.47011
     Eigenvalues ---    0.47559   0.47940   0.51718   0.58485   0.77153
 Eigenvectors required to have negative eigenvalues:
                          R6        D6        D9        A11       R2
   1                   -0.86094  -0.18019  -0.17439   0.12664   0.12392
                          R7        D32       D27       D34       D28
   1                    0.11614   0.11124  -0.11096   0.10818  -0.10802
 RFO step:  Lambda0=3.238034667D-11 Lambda= 0.00000000D+00.
 Linear search not attempted -- option 19 set.
 Iteration  1 RMS(Cart)=  0.00020880 RMS(Int)=  0.00000001
 Iteration  2 RMS(Cart)=  0.00000002 RMS(Int)=  0.00000000
 Variable       Old X    -DE/DX   Delta X   Delta X   Delta X     New X
                                 (Linear)    (Quad)   (Total)
    R1        2.71038   0.00001   0.00000   0.00003   0.00003   2.71041
    R2        2.64863   0.00000   0.00000  -0.00001  -0.00001   2.64862
    R3        2.82324  -0.00000   0.00000  -0.00002  -0.00002   2.82322
    R4        2.31540  -0.00000   0.00000  -0.00001  -0.00001   2.31539
    R5        2.57510   0.00000   0.00000  -0.00000  -0.00000   2.57510
    R6        3.57136  -0.00000   0.00000   0.00009   0.00009   3.57145
    R7        3.42088   0.00000   0.00000   0.00002   0.00002   3.42090
    R8        2.84121  -0.00000   0.00000  -0.00002  -0.00002   2.84119
    R9        2.05786  -0.00000   0.00000   0.00000   0.00000   2.05786
   R10        2.06269  -0.00000   0.00000   0.00000   0.00000   2.06269
   R11        2.05411  -0.00000   0.00000  -0.00001  -0.00001   2.05411
   R12        2.75695   0.00000   0.00000  -0.00000  -0.00000   2.75695
   R13        1.91666   0.00000   0.00000   0.00000   0.00000   1.91666
   R14        1.91666  -0.00000   0.00000  -0.00000  -0.00000   1.91666
   R15        2.05140   0.00000   0.00000   0.00000   0.00000   2.05140
   R16        2.05882   0.00000   0.00000   0.00000   0.00000   2.05882
   R17        2.05688  -0.00000   0.00000  -0.00001  -0.00001   2.05687
   R18        2.63358   0.00001   0.00000   0.00001   0.00001   2.63360
   R19        2.63523   0.00000   0.00000   0.00000   0.00000   2.63524
   R20        2.62470   0.00000   0.00000   0.00001   0.00001   2.62471
   R21        2.04877  -0.00000   0.00000  -0.00001  -0.00001   2.04876
   R22        2.61975  -0.00000   0.00000  -0.00001  -0.00001   2.61975
   R23        2.04672  -0.00000   0.00000  -0.00001  -0.00001   2.04671
   R24        2.62487   0.00000   0.00000   0.00001   0.00001   2.62488
   R25        2.04624  -0.00000   0.00000  -0.00001  -0.00001   2.04623
   R26        2.61913   0.00001   0.00000   0.00001   0.00001   2.61914
   R27        2.04693  -0.00000   0.00000  -0.00001  -0.00001   2.04692
   R28        2.04740   0.00000   0.00000   0.00000   0.00000   2.04741
   R29        2.68037  -0.00000   0.00000  -0.00001  -0.00001   2.68036
   R30        2.06114   0.00000   0.00000   0.00001   0.00001   2.06116
   R31        2.06137  -0.00000   0.00000  -0.00000  -0.00000   2.06137
   R32        2.05539  -0.00000   0.00000  -0.00000  -0.00000   2.05539
    A1        2.11342   0.00000   0.00000  -0.00000  -0.00000   2.11341
    A2        2.07290   0.00000   0.00000   0.00002   0.00002   2.07293
    A3        2.09481  -0.00001   0.00000  -0.00001  -0.00001   2.09480
    A4        2.24772   0.00000   0.00000  -0.00000  -0.00000   2.24772
    A5        1.94585   0.00000   0.00000  -0.00000  -0.00000   1.94585
    A6        2.08957  -0.00000   0.00000   0.00000   0.00000   2.08957
    A7        1.90854  -0.00000   0.00000  -0.00002  -0.00002   1.90853
    A8        2.00351   0.00000   0.00000   0.00001   0.00001   2.00352
    A9        2.15355   0.00000   0.00000   0.00002   0.00002   2.15357
   A10        1.65718  -0.00000   0.00000  -0.00003  -0.00003   1.65715
   A11        1.74356   0.00000   0.00000   0.00000   0.00000   1.74357
   A12        1.91006  -0.00000   0.00000  -0.00000  -0.00000   1.91006
   A13        1.90645   0.00000   0.00000   0.00000   0.00000   1.90646
   A14        1.90894   0.00000   0.00000  -0.00000  -0.00000   1.90894
   A15        1.94424  -0.00000   0.00000   0.00000   0.00000   1.94424
[...]
 1911559,-0.00186736,0.00111397,0.00354488,-0.00096211,-0.00006882,0.00
 054463,-0.00513130,0.00216818,0.00026355,-0.00556374,0.00469963,-0.029
 56387,-0.09098101,0.01840010,-0.08969689,0.00046306,-0.00017058,0.0010
 1264,0.00009421,-0.00018794,-0.00012118,-0.00045143,0.00026205,-0.0014
 0254,0.00094503,-0.00091777,0.00032025,0.09336558,-0.00082224,-0.00366
 217,-0.00057833,0.00059007,0.00021724,-0.00026476,0.00001868,-0.000185
 96,0.00009567,-0.00066733,0.00052803,0.00018431,0.00000188,0.00000175,
 -0.00002082,0.00000349,0.00000170,-0.00000125,0.00000217,-0.00000134,0
 .00000128,0.00000030,-0.00000231,-0.00000131,-0.00000383,-0.00009988,0
 .00002325,-0.00000870,-0.00000490,0.00001848,-0.00000249,-0.00000310,0
 .00002080,0.00021737,-0.00001287,0.00001018,-0.00001681,-0.00014675,-0
 .00002765,0.00001126,-0.00000823,0.00000591,-0.00000677,-0.00000117,-0
 .00000392,-0.00004693,-0.00000385,-0.00001606,0.00070454,0.00410089,-0
 .00096719,0.00105087,0.00652378,0.00041365,-0.00025750,-0.00084195,-0.
 00020624,0.00233345,0.00735151,0.00041810,0.00163033,0.00283978,0.0056
 0830,0.01794291,-0.04671248,0.04259892,-0.00000222,0.00009832,0.000000
 47,-0.00019958,-0.00109381,-0.00008455,0.00009239,0.00007186,0.0002683
 1,-0.00085870,-0.00415483,-0.00060420,-0.02147114,0.03511414,-0.001510
 70,-0.00041653,0.00171881,0.00057389,-0.00013237,-0.00003537,-0.000055
 48,-0.00008317,-0.00009757,0.00054454,0.00018199,-0.00015064,0.0000079
 7,-0.00006651,0.00002170,-0.00000479,0.00000490,0.00001096,-0.00001584
 ,0.00002724,-0.00002394,0.00000685,0.00000859,0.00000048,-0.00010538,-
 0.00007556,0.00019589,-0.00009054,-0.00008569,-0.00000945,0.00002152,-
 0.00001673,0.00000684,-0.00013038,-0.00006413,0.00017819,0.00004054,0.
 00009858,-0.00002012,-0.00001064,-0.00000433,-0.00000374,-0.00000361,0
 .00000235,-0.00000653,0.00002775,-0.00000885,0.00000497,-0.01141467,0.
 00437316,-0.01862002,0.00406650,0.00025422,-0.00221952,0.00073470,-0.0
 0025645,0.00032223,-0.00049155,0.00068631,0.00198529,0.00131475,0.0001
 7809,-0.00009926,-0.08827602,0.04273492,-0.29931852,-0.00042860,0.0002
 2404,-0.00107272,-0.00012413,-0.00009280,-0.00008842,0.00006260,0.0000
 1484,-0.00016113,-0.00047809,-0.00044068,0.00070846,0.09578748,-0.0470
 1628,0.31664156,0.00250421,-0.02228945,-0.00369440,-0.15586621,-0.0218
 2670,-0.01324714,-0.10273856,-0.03037136,-0.01836006,0.00726998,0.0141
 0395,-0.00358151,0.00048399,-0.00107430,-0.00040151,-0.00009498,0.0002
 1611,0.00029304,0.00000050,0.00009764,-0.00038369,-0.00003657,0.000102
 15,-0.00003622,-0.00226336,-0.00423562,0.00415574,-0.00034536,0.000125
 87,-0.00002913,0.00014032,-0.00004389,0.00095856,0.00050395,-0.0020069
 4,0.00036759,-0.00105699,-0.00087124,0.00027803,0.00084445,0.00032339,
 -0.00058264,-0.00025371,-0.00016012,0.00040875,0.00007474,-0.00079858,
 -0.00000545,-0.00299863,0.00303692,-0.00038909,0.00131653,0.00109625,0
 .00089847,0.00018789,-0.00000570,0.00025539,-0.00008936,-0.00020936,-0
 .00024588,0.00074093,0.00002934,0.00005221,0.00084111,0.00141746,-0.00
 023842,-0.00010757,-0.00019512,-0.00008504,0.00007244,-0.00002129,0.00
 000743,-0.00000652,-0.00000039,-0.00001063,0.00006662,-0.00003006,0.00
 001603,-0.00008791,-0.00020800,-0.00004793,0.34713360,-0.04231298,-0.0
 7082314,-0.01099887,-0.05373892,-0.15728979,-0.01131514,-0.02651224,0.
 02039174,-0.00368701,0.01697561,0.01765498,-0.00603932,0.00094194,-0.0
 0208451,-0.00067267,-0.00024986,0.00044360,0.00057357,0.00016036,0.000
 20654,-0.00076076,-0.00017921,0.00012055,0.00002422,-0.00455661,-0.007
 85441,0.00769122,-0.00046374,0.00048038,-0.00026657,0.00026768,-0.0001
 0402,0.00188551,0.00017818,-0.00669671,-0.00077389,-0.00028537,-0.0004
 2393,0.00031283,0.00021395,-0.00000817,-0.00010102,-0.00041677,-0.0004
 0132,0.00013579,-0.00053395,-0.00043026,0.00012465,-0.00470272,-0.0039
 7434,-0.00066983,0.00132589,-0.00097637,-0.00040982,-0.00004807,0.0000
 8846,-0.00000156,0.00086314,-0.00004466,0.00033187,-0.00037538,0.00010
 436,-0.00031117,0.00150342,-0.00119896,0.00078358,-0.00027830,0.000012
 94,-0.00010274,0.00021068,-0.00013883,0.00016775,0.00014147,-0.0000356
 9,0.00001552,0.00025109,-0.00011816,-0.00011338,-0.00014727,0.00009287
 ,-0.00001258,0.02702247,0.50579556,-0.00302536,-0.00780690,0.01056261,
 -0.01479750,-0.00676541,-0.06672288,-0.01848562,-0.00443074,0.02408604
 ,0.00176362,0.00265730,0.00098025,0.00009246,-0.00084678,-0.00017028,0
 .00001519,0.00010938,0.00008135,0.00002366,0.00017083,-0.00014130,-0.0
 0003909,0.00001767,-0.00000729,-0.00114480,-0.00152606,0.00173808,-0.0
 0012061,0.00005175,-0.00001359,0.00002690,0.00001744,0.00035116,0.0000
 6608,0.00074379,0.00008424,-0.00052191,-0.00007060,0.00067710,0.000156
 46,-0.00027799,-0.00018096,0.00013183,0.00004911,-0.00018986,0.0000006
 4,-0.00005223,-0.00014663,-0.00043643,0.00017404,-0.00041398,-0.000111
 96,0.00087848,0.00023820,0.00065277,0.00012059,-0.00006627,-0.00005934
 ,-0.00006626,0.00044195,-0.00045811,-0.00007751,-0.00032420,0.00051926
 ,-0.00062121,0.00002193,-0.00006323,-0.00016764,0.00003053,0.00001176,
 -0.00002463,0.00000405,0.00000642,-0.00000156,0.00001441,0.00003018,0.
 00000725,-0.00000446,-0.00000049,0.00010670,0.00010711,0.03843194,0.02
 380368,0.07851204,-0.00467390,-0.00327106,-0.00121371,0.01411323,-0.03
 257562,0.00076603,-0.00299072,-0.00243892,0.00013174,0.00115889,0.0003
 2431,-0.00030889,0.00005580,-0.00008065,-0.00000417,-0.00002011,0.0000
 0659,0.00003393,0.00001476,0.00000652,-0.00007987,-0.00001027,0.000004
 17,-0.00000211,-0.00017951,-0.00027969,0.00024147,-0.00003942,0.000021
 82,-0.00001621,0.00002539,0.00000194,0.00008396,0.00004696,-0.00081183
 ,-0.00019517,0.00003754,-0.00003324,0.00002169,0.00004607,0.00002214,-
 0.00000308,-0.00001205,-0.00002364,0.00001723,-0.00004647,-0.00003201,
 0.00000341,-0.00051486,0.00025268,-0.00004031,0.00029756,0.00008586,0.
 00018394,-0.00004143,-0.00000918,0.00008090,-0.00002852,-0.00001379,-0
 .00008178,0.00013226,-0.00002000,-0.00000195,0.00016258,0.00014594,-0.
 00003599,-0.00001656,-0.00001316,-0.00001697,0.00001333,-0.00000183,0.
 00000266,0.00000226,0.00000358,-0.00000165,0.00001276,-0.00000359,0.00
 000258,-0.00000894,-0.00002292,0.00000187,-0.10266845,0.05532645,-0.00
 282887,0.60803444,0.00110481,0.00978156,0.00111086,-0.02388062,-0.0606
 5862,-0.00601836,0.01600466,0.00090313,0.00225099,-0.00377062,-0.00680
 332,0.00182335,-0.00032116,0.00051227,0.00019937,0.00008040,-0.0000985
 3,-0.00018035,-0.00006794,-0.00007092,0.00029022,0.00005410,-0.0000294
 1,0.00000428,0.00135957,0.00247114,-0.00241193,0.00012002,-0.00016178,
 0.00005849,-0.00008232,0.00003543,-0.00056357,-0.00022349,0.00149834,0
 .00005224,0.00025649,0.00035803,-0.00010378,-0.00022325,-0.00008816,0.
 00009933,0.00011475,0.00010961,-0.00008761,0.00010695,0.00022094,-0.00
 002111,0.00120805,-0.00043625,0.00016703,-0.00029818,0.00037056,0.0001
 8100,0.00002973,-0.00001131,0.00000303,-0.00034799,-0.00000064,-0.0001
 3982,0.00018023,-0.00001559,0.00012626,-0.00040137,0.00037240,-0.00022
 633,0.00010041,-0.00001128,0.00004958,-0.00008521,0.00004083,-0.000073
 18,-0.00006675,0.00002131,-0.00000893,-0.00010433,0.00002981,0.0000486
 3,0.00004967,-0.00002837,-0.00003237,0.03027600,-0.20333068,-0.0023871
 4,0.04249711,0.47554104,-0.00078792,-0.00017778,0.00345433,0.00122861,
 -0.00700405,-0.00235339,0.00088814,-0.00011673,-0.00422320,-0.00011485
 ,-0.00056127,0.00119015,0.00002337,-0.00005536,-0.00002240,-0.00000941
 ,0.00002213,0.00001219,-0.00002731,0.00001947,0.00003035,-0.00000312,0
 .00000846,0.00000469,-0.00033067,-0.00042897,0.00019438,-0.00001299,0.
 00000957,-0.00002238,-0.00000153,-0.00002774,0.00013248,0.00000397,0.0
 0070530,-0.00001287,-0.00004674,0.00003132,0.00005335,-0.00001041,-0.0
 0004202,-0.00000880,0.00003159,0.00001297,-0.00000963,0.00001851,0.000
 01563,-0.00001660,0.00004261,0.00002579,-0.00034680,-0.00017868,0.0001
 0352,-0.00005777,0.00023666,-0.00005629,-0.00004899,-0.00006207,-0.000
 01077,0.00019307,-0.00018247,0.00004599,-0.00012914,0.00023659,0.00001
 698,-0.00005880,0.00000585,-0.00001960,0.00001239,-0.00000436,0.000003
 28,-0.00000550,-0.00000379,0.00000085,0.00000581,-0.00000404,-0.000002
 24,0.00000085,-0.00000937,0.00001031,0.00001944,-0.00398507,0.00114468
 ,-0.06429557,0.00515512,0.00067955,0.58612536,0.00019460,0.00046286,-0
 .00011667,-0.00151378,-0.00262877,0.00032637,0.00074797,-0.00022686,0.
 00032815,-0.00022160,-0.00035900,0.00012976,-0.00001990,0.00001985,0.0
 0000723,0.00000457,-0.00000090,-0.00001025,-0.00000220,-0.00000128,0.0
 0002388,0.00000219,-0.00000240,0.00000272,0.00006284,0.00010451,-0.000
 10023,0.00000423,-0.00001198,0.00000379,-0.00000437,0.00000010,-0.0000
 2572,-0.00000687,0.00010204,0.00001752,0.00004747,0.00002361,-0.000034
 37,-0.00002348,0.00000928,0.00001815,-0.00000523,0.00000269,-0.0000013
 4,0.00000504,0.00001640,0.00000617,0.00011267,-0.00003836,-0.00002860,
 -0.00005247,0.00005282,0.00001485,0.00002830,-0.00000953,-0.00000400,-
 0.00003854,0.00000187,0.00001099,-0.00000456,0.00000218,-0.00000774,0.
 00000117,0.00003323,-0.00003283,0.00000668,-0.00000437,0.00000382,-0.0
 0000797,0.00000296,-0.00000680,-0.00000579,0.00000149,-0.00000011,-0.0
 0000977,0.00000028,0.00000414,0.00000470,-0.00000089,0.00000150,-0.002
 22279,0.00981170,-0.00527209,-0.09532225,0.02654847,-0.09620137,0.0980
 8486,-0.00066604,-0.00208486,-0.00105581,0.00709993,0.00474660,0.00262
 145,-0.00259207,0.00019208,-0.00029817,0.00094825,0.00146684,-0.000614
 00,0.00005725,-0.00011127,-0.00004446,-0.00001427,0.00002407,0.0000331
 1,0.00002254,0.00001488,-0.00005499,-0.00001310,0.00000288,0.00000261,
 -0.00023005,-0.00045004,0.00050185,-0.00002320,0.00003122,-0.00001098,
 0.00001761,-0.00000326,0.00009391,0.00001602,-0.00047622,-0.00001429,-
 0.00000624,-0.00004532,-0.00000705,-0.00000151,0.00000785,0.00000441,-
 0.00003816,-0.00002848,0.00001133,-0.00004107,-0.00002402,0.00001420,-
 0.00033153,0.00015678,0.00000489,0.00006453,-0.00007578,-0.00005105,-0
 .00005306,0.00000783,0.00000566,0.00007591,0.00000293,-0.00001838,0.00
 001629,-0.00001860,0.00000488,-0.00001019,-0.00002841,0.00009393,-0.00
 001995,0.00000860,-0.00001233,0.00001737,-0.00000800,0.00001543,0.0000
 1387,-0.00000387,0.00000022,0.00002206,-0.00000519,-0.00000904,-0.0000
 0952,0.00000684,-0.00000061,0.01532379,-0.02846492,0.03029899,0.023518
 24,-0.06241985,0.04999593,-0.03511230,0.07843687,0.00044224,0.00036593
 ,-0.00032950,-0.00357256,-0.00109073,0.00039167,0.00110038,-0.00188373
 ,0.00040263,-0.00017192,-0.00017620,0.00003228,-0.00000783,0.00003942,
 0.00001068,0.00000012,-0.00000495,-0.00000329,-0.00000189,-0.00001293,
 0.00001101,0.00000371,-0.00000027,-0.00000105,0.00005827,0.00007112,-0
 .00008148,0.00000334,-0.00000689,0.00000322,-0.00000224,-0.00000080,-0
 .00001841,0.00000156,0.00002266,0.00000786,0.00001960,-0.00001057,-0.0
 0001660,0.00001266,0.00001818,-0.00000084,-0.00000477,0.00000911,0.000
 01125,0.00000766,-0.00001141,-0.00000017,0.00006902,-0.00004428,-0.000
 02540,-0.00001656,0.00001514,0.00000589,0.00001030,-0.00000260,-0.0000
 0046,-0.00001432,-0.00000275,0.00000465,0.00000053,0.00000517,-0.00000
 370,0.00002389,-0.00000909,-0.00000917,0.00000179,-0.00000272,0.000003
 34,-0.00000275,0.00000155,-0.00000301,-0.00000281,0.00000127,0.0000000
 3,-0.00000342,0.00000128,0.00000223,0.00000258,0.00000316,0.00000142,0
 .00190988,0.00552631,0.00828329,-0.09590924,0.05683326,-0.25752889,0.1
 0670466,-0.06425074,0.27015205,0.00024537,0.00051752,0.00034700,-0.002
 26112,-0.00278268,-0.00126287,0.00125965,-0.00089523,-0.00036409,-0.00
 022309,-0.00042331,0.00002354,-0.00002369,0.00002006,0.00001066,0.0000
 0686,-0.00000343,-0.00001275,-0.00000815,0.00000459,0.00002565,0.00000
 300,-0.00000120,0.00000046,0.00007622,0.00015553,-0.00011034,0.0000052
 1,-0.00001333,0.00000424,-0.00000683,0.00000214,-0.00003842,-0.0000111
 9,0.00014361,0.00001953,-0.00000320,0.00004055,0.00002706,-0.00002874,
 -0.00003505,0.00000220,0.00001864,0.00001697,-0.00002060,0.00001198,0.
 00002335,-0.00000721,0.00013129,-0.00006085,0.00005677,0.00001205,0.00
 002957,0.00004331,-0.00002820,0.00000209,0.00001252,-0.00003205,0.0000
 0476,-0.00004298,0.00004454,-0.00001151,0.00002645,-0.00007056,0.00005
 221,-0.00002499,0.00001139,0.00000072,0.00000064,-0.00000877,0.0000020
 2,-0.00000756,-0.00000631,0.00000204,-0.00000175,-0.00001054,0.0000023
 7,0.00000498,0.00000300,-0.00000605,-0.00000535,-0.00270607,0.01098369
 ,0.00363375,-0.15521088,0.02818355,0.12719876,0.00905350,-0.00307941,-
 0.01081018,0.16414170,-0.00072931,-0.00218443,0.00044250,0.00710522,0.
 00487026,-0.00025200,-0.00255246,-0.00000365,-0.00040847,0.00095126,0.
 00138451,-0.00027561,0.00006243,-0.00015888,-0.00005792,-0.00001541,0.
 00003749,0.00003963,0.00001945,0.00002977,-0.00004546,-0.00001398,0.00
 000792,0.00000242,-0.00037538,-0.00062152,0.00063049,-0.00002755,0.000
 03728,-0.00002015,0.00001225,-0.00001154,0.00014627,0.00001970,-0.0001
 9531,-0.00000949,-0.00005293,-0.00003621,0.00004158,0.00000407,-0.0000
 2252,-0.00000786,-0.00002028,-0.00001815,-0.00000582,-0.00003195,-0.00
 001846,-0.00000039,-0.00031760,0.00015332,-0.00007836,-0.00001077,-0.0
 0001189,-0.00009569,0.00005501,-0.00001645,-0.00001351,0.00005728,-0.0
 0000302,0.00007340,-0.00007803,0.00000759,-0.00004768,0.00008843,-0.00
 007179,0.00005643,-0.00002076,0.00000186,-0.00000529,0.00001731,-0.000
 00858,0.00001414,0.00001334,-0.00000401,0.00000346,0.00002097,-0.00000
 594,-0.00001017,-0.00001179,0.00001280,0.00001181,0.02330182,-0.025434
 35,-0.02815680,0.02348097,-0.05493480,-0.02804471,-0.00550169,0.003415
 98,0.00472731,-0.03727861,0.06931754,-0.00035778,-0.00036949,-0.000373
 16,0.00341931,0.00073965,0.00106481,-0.00125097,0.00170100,0.00030190,
 0.00017328,0.00021983,-0.00004856,0.00001636,0.00001149,-0.00001117,-0
 .00000547,0.00000354,0.00000664,0.00000145,-0.00001422,-0.00000646,-0.
 00000233,0.00000091,0.00000060,-0.00004424,-0.00010190,0.00004856,-0.0
 0000298,0.00000607,-0.00000319,0.00000600,-0.00000622,0.00002835,-0.00
 000102,-0.00008119,-0.00000573,0.00000810,-0.00000557,-0.00002752,-0.0
 0000830,0.00000938,0.00001298,-0.00000958,-0.00001494,0.00000339,-0.00
 001188,0.00000683,0.00001020,-0.00007207,0.00005826,-0.00002827,-0.000
 01873,0.00000639,-0.00001479,0.00000622,-0.00000295,-0.00000397,0.0000
 0845,0.00000005,0.00001165,-0.00001194,0.00000260,-0.00000604,0.000013
 76,-0.00001019,0.00000756,-0.00000474,-0.00000006,0.00000031,0.0000022
 7,-0.00000232,0.00000247,0.00000257,-0.00000107,0.00000064,0.00000301,
 -0.00000141,-0.00000208,-0.00000140,0.00000368,0.00000352,-0.00269023,
 -0.00581359,0.00572903,0.12654585,-0.03379095,-0.20463697,0.01819728,-
 0.00375362,-0.01976510,-0.13957628,0.03932817,0.21257177,0.00033637,-0
 .00027281,-0.00002676,-0.00161142,0.00365457,-0.00008333,0.00075044,-0
 .00265909,-0.00009573,0.00014781,0.00042400,-0.00012926,0.00001885,-0.
 00001962,-0.00000767,-0.00000448,0.00000327,0.00001036,0.00000085,0.00
 000241,-0.00001656,-0.00000113,0.00000244,-0.00000174,-0.00006303,-0.0
 0012951,0.00013372,-0.00000640,0.00000750,-0.00000114,0.00000333,-0.00
 000116,0.00002585,0.00001318,-0.00004190,0.00002058,-0.00002448,-0.000
 03137,0.00002094,0.00002995,0.00000376,-0.00001834,-0.00000483,0.00000
 384,0.00000997,0.00000242,-0.00002772,-0.00000495,-0.00003583,-0.00006
 375,-0.00000518,0.00001227,-0.00001561,-0.00003066,0.00000270,-0.00000
 073,0.00000255,0.00001864,0.00000278,0.00000975,-0.00001058,0.00000002
 ,-0.00001078,0.00001576,-0.00002477,0.00003126,-0.00000667,-0.00000049
 ,-0.00000194,0.00000583,-0.00000247,0.00000409,0.00000382,-0.00000185,
 0.00000056,0.00000673,-0.00000152,-0.00000212,-0.00000278,0.00000240,0
 .00000123,0.01136177,0.00862369,0.00180251,-0.26236947,-0.11840174,-0.
 03309359,-0.00889921,-0.00497199,0.00014831,-0.01438502,-0.00817099,-0
 .00433398,0.27469460,-0.00181896,-0.00181413,-0.00038646,0.00731969,-0
 .00252868,0.00092935,-0.00105463,0.00207002,-0.00007348,0.00083627,0.0
 0074172,-0.00029793,0.00005006,-0.00009385,-0.00002232,-0.00001536,0.0
 0001652,0.00003020,0.00001295,0.00001517,-0.00004945,-0.00001032,0.000
 00369,0.00000149,-0.00021774,-0.00037250,0.00038270,-0.00002330,0.0000
 2644,-0.00001476,0.00001379,-0.00000391,0.00008733,0.00002022,-0.00039
 802,-0.00006642,0.00002035,-0.00002805,0.00001812,0.00001329,0.0000120
 2,0.00000599,-0.00001663,-0.00001354,0.00000207,-0.00003394,-0.0000161
 1,0.00000393,-0.00033151,0.00013062,-0.00004026,0.00007881,-0.00001499
 ,-0.00001002,0.00000145,0.00000661,0.00001226,0.00004397,-0.00000514,0
 .00000983,0.00000088,0.00000857,-0.00001678,0.00007463,-0.00001343,0.0
 0003927,-0.00001644,0.,-0.00000906,0.00001455,-0.00000565,0.00001020,0
 .00000878,-0.00000236,0.00000092,0.00001686,-0.00000460,-0.00000591,-0
 .00000924,0.00000245,0.00000457,-0.03212502,-0.03555877,-0.00592753,-0
 .10606720,-0.10316692,-0.01630422,0.00670199,0.00572582,-0.00013024,0.
 00440333,0.00448516,0.00187185,0.12210844,0.13079584,-0.00004204,-0.00
 012135,0.00012629,0.00005849,0.00034943,0.00036050,-0.00002139,-0.0002
 8729,0.00054321,0.00006061,0.00007875,-0.00001971,0.00000590,-0.000011
 86,-0.00000443,-0.00000158,0.00000316,0.00000417,-0.00000025,-0.000000
 01,-0.00000229,-0.00000111,0.00000057,0.00000018,-0.00003744,-0.000064
 91,0.00006210,-0.00000364,0.00000319,-0.00000112,0.00000120,-0.0000008
 7,0.00001504,-0.00000205,0.00002062,0.00000007,-0.00000510,-0.00001022
 ,0.00000746,0.00000804,0.00000148,-0.00000147,-0.00000233,-0.00000098,
 -0.00000018,-0.00000265,-0.00000429,-0.00000075,-0.00001182,0.00000102
 ,-0.00003574,0.00000883,-0.00000474,-0.00000435,-0.00000948,0.00000091
 ,0.00000126,0.00000573,-0.00000015,-0.00000476,0.00000809,0.00000075,0
 .00000246,0.00000238,-0.00000470,0.00000390,-0.00000079,-0.00000029,-0
 .00000101,0.00000129,0.00000009,0.00000030,0.00000095,-0.00000026,-0.0
 0000028,0.00000197,-0.00000103,-0.00000137,-0.00000150,0.00000107,0.00
 000008,-0.00001901,-0.00047127,0.00073390,-0.03253238,-0.01793206,-0.0
 5765117,-0.02395886,-0.01350727,-0.00153644,0.02084785,0.01201776,0.00
 512863,0.03564209,0.01994478,0.05227550\\-0.00000863,0.00000339,-0.000
 00177,0.00000657,-0.00000572,0.00000431,-0.00000084,0.00000121,-0.0000
 0032,0.00000419,0.00000156,0.00000144,0.00000276,-0.00000108,0.0000008
 8,0.00000092,0.00000251,0.00000164,0.00000050,0.00000268,0.00000092,-0
 .00000177,0.00000349,0.00000208,0.00000018,0.00000424,0.00000238,-0.00
 000259,-0.00000050,-0.00000066,-0.00000372,0.00000172,0.00000199,-0.00
 000207,0.00000161,0.00000088,-0.00000328,0.00000465,0.00000087,0.00000
 084,0.00000326,0.00000209,-0.00000160,0.00000042,0.00000307,-0.0000044
 6,0.00000099,0.00000102,0.00000828,0.00000103,0.00000261,0.00000258,-0
 .00000043,-0.00000935,-0.00000536,-0.00000199,-0.00000250,-0.00000113,
 -0.00000141,-0.00000911,-0.00000988,-0.00000283,0.00000339,0.00000286,
 -0.00000300,-0.00000042,-0.00000032,-0.00000024,0.00000256,0.00000130,
 -0.00000294,0.00000080,0.00000117,-0.00000497,-0.00000142,0.00000112,-
 0.00000392,-0.00000507,-0.00000153,-0.00000220,0.00000003,0.00000113,-
 0.00000568,-0.00000198,0.00000119,0.00000405,-0.00000475,0.00000410,-0
 .00000113,0.00000384,0.00000398,0.00000100,0.00000044,0.00000351,0.000
 00023,0.00000013\\\@


 TERENCE, THIS IS STUPID STUFF:
 YOU EAT YOUR VICTUALS FAST ENOUGH;
 THERE CAN'T BE MUCH AMISS, 'TIS CLEAR
 TO SEE THE RATE YOU DRINK YOUR BEER.
 BUT OH, GOOD LORD, THE VERSE YOU MAKE,
 IT GIVES A CHAP THE BELLY-ACHE.
 THE COW, THE OLD COW, SHE IS DEAD;
 IT SLEEPS WELL, THE HORNED HEAD:
 WE POOR LADS, 'TIS OUR TURN NOW
 TO HEAR SUCH TUNES AS KILLED THE COW.
 PRETTY FRIENDSHIP 'TIS TO RHYME
 YOUR FRIENDS TO DEATH BEFORE THEIR TIME.
 MOPING, MELANCHOLY MAD:
 COME PIPE A TUNE TO DANCE TO, LAD.

     -- A. E. HOUSMAN
 Job cpu time:       0 days 20 hours  1 minutes 48.6 seconds.
 Elapsed time:       0 days  1 hours 15 minutes 10.3 seconds.
 File lengths (MBytes):  RWF=   1131 Int=      0 D2E=      0 Chk=     36 Scr=      1
 Normal termination of Gaussian 16 at Fri Feb 26 08:58:06 2021.
