 Entering Gaussian System, Link 0=g16
 Initial command:
 /apps/gaussian/16/A.03/g16/l1.exe "/beegfs/scratch/user/q/tla25/Gau-41041.inp" -scrdir="/beegfs/scratch/user/q/tla25/"
 Entering Link 1 = /apps/gaussian/16/A.03/g16/l1.exe PID=     41042.
  
 Copyright (c) 1988,1990,1992,1993,1995,1998,2003,2009,2016,
            Gaussian, Inc.  All Rights Reserved.
  
 This is part of the Gaussian(R) 16 program.  It is based on
 the Gaussian(R) 09 system (copyright 2009, Gaussian, Inc.),
 the Gaussian(R) 03 system (copyright 2003, Gaussian, Inc.),
 the Gaussian(R) 98 system (copyright 1998, Gaussian, Inc.),
 the Gaussian(R) 94 system (copyright 1995, Gaussian, Inc.),
 the Gaussian 92(TM) system (copyright 1992, Gaussian, Inc.),
 the Gaussian 90(TM) system (copyright 1990, Gaussian, Inc.),
 the Gaussian 88(TM) system (copyright 1988, Gaussian, Inc.),
 the Gaussian 86(TM) system (copyright 1986, Carnegie Mellon
 University), and the Gaussian 82(TM) system (copyright 1983,
 Carnegie Mellon University). Gaussian is a federally registered
 trademark of Gaussian, Inc.
  
 This software contains proprietary and confidential information,
 including trade secrets, belonging to Gaussian, Inc.
  
 This software is provided under written license and may be
 used, copied, transmitted, or stored only in accord with that
 written license.
  
 The following legend is applicable only to US Government
 contracts under FAR:
  
                    RESTRICTED RIGHTS LEGEND
  
 Use, reproduction and disclosure by the US Government is
 subject to restrictions as set forth in subparagraphs (a)
 and (c) of the Commercial Computer Software - Restricted
 Rights clause in FAR 52.227-19.
  
 Gaussian, Inc.
 340 Quinnipiac St., Bldg. 40, Wallingford CT 06492
  
  
 ---------------------------------------------------------------
 Warning -- This program may not be used in any manner that
 competes with the business of Gaussian, Inc. or will provide
 assistance to any competitor of Gaussian, Inc.  The licensee
 of this program is prohibited from giving any competitor of
 Gaussian, Inc. access to this program.  By using this program,
 the user acknowledges that Gaussian, Inc. is engaged in the
 business of creating and licensing software in the field of
 computational chemistry and represents and warrants to the
 licensee that it is not a competitor of Gaussian, Inc. and that
 it will not use this program in any manner prohibited above.
 ---------------------------------------------------------------
  

 Cite this work as:
 Gaussian 16, Revision A.03,
 M. J. Frisch, G. W. Trucks, H. B. Schlegel, G. E. Scuseria, 
 M. A. Robb, J. R. Cheeseman, G. Scalmani, V. Barone, 
 G. A. Petersson, H. Nakatsuji, X. Li, M. Caricato, A. V. Marenich, 
 J. Bloino, B. G. Janesko, R. Gomperts, B. Mennucci, H. P. Hratchian, 
 J. V. Ortiz, A. F. Izmaylov, J. L. Sonnenberg, D. Williams-Young, 
 F. Ding, F. Lipparini, F. Egidi, J. Goings, B. Peng, A. Petrone, 
 T. Henderson, D. Ranasinghe, V. G. Zakrzewski, J. Gao, N. Rega, 
 G. Zheng, W. Liang, M. Hada, M. Ehara, K. Toyota, R. Fukuda, 
 J. Hasegawa, M. Ishida, T. Nakajima, Y. Honda, O. Kitao, H. Nakai, 
 T. Vreven, K. Throssell, J. A. Montgomery, Jr., J. E. Peralta, 
 F. Ogliaro, M. J. Bearpark, J. J. Heyd, E. N. Brothers, K. N. Kudin, 
 V. N. Staroverov, T. A. Keith, R. Kobayashi, J. Normand, 
 K. Raghavachari, A. P. Rendell, J. C. Burant, S. S. Iyengar, 
 J. Tomasi, M. Cossi, J. M. Millam, M. Klene, C. Adamo, R. Cammi, 
 J. W. Ochterski, R. L. Martin, K. Morokuma, O. Farkas, 
 J. B. Foresman, and D. J. Fox, Gaussian, Inc., Wallingford CT, 2016.
 
 ******************************************
 Gaussian 16:  ES64L-G16RevA.03 25-Dec-2016
                26-Feb-2021 
 ******************************************
 %nprocshared=16
 Will use up to   16 processors via shared memory.
 %mem=48GB
 ----------------------------------------------------------------------
 # wB97XD def2tzvp, opt=(ts, noeigen, calcfc, maxcycles=70, maxstep=5),
  freq=noraman, scrf=(iefpcm, solvent=water)
 ----------------------------------------------------------------------
 1/5=1,6=70,8=5,10=4,11=1,18=20,26=3,38=1/1,3;
 2/9=110,12=2,17=6,18=5,40=1/2;
 3/5=44,7=101,11=2,25=1,30=1,70=2201,71=2,72=1,74=-58,140=1/1,2,3;
 4//1;
 5/5=2,38=5,53=1/2;
 8/6=4,10=90,11=11/1;
 11/6=1,8=1,9=11,15=111,16=1/1,2,10;
 10/6=1,13=1/2;
 6/7=2,8=2,9=2,10=2,28=1/1;
 7/10=1,18=20,25=1/1,2,3,16;
 1/5=1,6=70,8=5,10=4,11=1,18=20,26=3/3(2);
 2/9=110/2;
 99//99;
 2/9=110/2;
 3/5=44,7=101,11=2,25=1,30=1,70=2205,71=1,72=1,74=-58/1,2,3;
 4/5=5,16=3,69=1/1;
 5/5=2,38=5,53=1/2;
 7//1,2,3,16;
 1/5=1,6=70,8=5,11=1,18=20,26=3/3(-5);
 2/9=110/2;
 6/7=2,8=2,9=2,10=2,19=2,28=1/1;
 99/9=1/99;
 ------------------------
 2_iteration/TS-818-2.out
 ------------------------
 Symbolic Z-matrix:
 Charge =  0 Multiplicity = 1
 C                     1.50427   0.27357  -0.3327 
 C                     1.41191   1.56903   0.27093 
 O                     0.49007   1.96172   1.00119 
 C                     0.42677  -0.62108  -0.23956 
 C                     1.02999  -1.07262   2.43778 
 H                     0.12543  -0.59286   2.80099 
 H                     1.41736  -1.75626   3.19186 
 H                     1.77378  -0.30705   2.22375 
 N                     0.7431   -1.7802    1.19057 
 H                     1.57275  -2.26314   0.86222 
 H                     0.02267  -2.4871    1.29826 
 Cl                    0.4089   -1.93272  -1.50276 
 C                    -0.99325  -0.13252  -0.10198 
 C                    -1.42134   0.79604  -1.05268 
 C                    -2.72251   1.25988  -1.06072 
 C                    -3.63454   0.80052  -0.11857 
 C                    -3.22563  -0.13246   0.81725 
 C                    -1.91793  -0.60246   0.81996 
 H                    -0.71382   1.1605   -1.78578 
 H                    -3.02712   1.98457  -1.80524 
 H                    -4.65415   1.16401  -0.12001 
 H                    -3.92362  -0.5063    1.55548 
 H                    -1.65346  -1.3303    1.57107 
 C                     2.8125   -0.16107  -0.95551 
 H                     2.89472  -1.24628  -0.99971 
 H                     2.93529   0.20373  -1.98139 
 H                     3.67077   0.19398  -0.38309 
 C                     2.55476   2.53578   0.0029 
 H                     3.42023   2.26993   0.61595 
 H                     2.87885   2.52032  -1.0386 
 H                     2.23681   3.54052   0.27507 
 
 Add virtual bond connecting atoms N9         and C4         Dist= 3.53D+00.

 GradGradGradGradGradGradGradGradGradGradGradGradGradGradGradGradGradGrad
 Berny optimization.
 Initialization pass.
                           ----------------------------
                           !    Initial Parameters    !
                           ! (Angstroms and Degrees)  !
 --------------------------                            --------------------------
 ! Name  Definition              Value          Derivative Info.                !
 --------------------------------------------------------------------------------
 ! R1    R(1,2)                  1.4322         calculate D2E/DX2 analytically  !
 ! R2    R(1,4)                  1.4036         calculate D2E/DX2 analytically  !
 ! R3    R(1,24)                 1.5127         calculate D2E/DX2 analytically  !
 ! R4    R(2,3)                  1.2399         calculate D2E/DX2 analytically  !
 ! R5    R(2,28)                 1.5207         calculate D2E/DX2 analytically  !
 ! R6    R(4,9)                  1.8679         calculate D2E/DX2 analytically  !
 ! R7    R(4,12)                 1.8211         calculate D2E/DX2 analytically  !
 ! R8    R(4,13)                 1.508          calculate D2E/DX2 analytically  !
 ! R9    R(5,6)                  1.0864         calculate D2E/DX2 analytically  !
 ! R10   R(5,7)                  1.0891         calculate D2E/DX2 analytically  !
 ! R11   R(5,8)                  1.0886         calculate D2E/DX2 analytically  !
 ! R12   R(5,9)                  1.4624         calculate D2E/DX2 analytically  !
 ! R13   R(9,10)                 1.0146         calculate D2E/DX2 analytically  !
 ! R14   R(9,11)                 1.015          calculate D2E/DX2 analytically  !
 ! R15   R(13,14)                1.3962         calculate D2E/DX2 analytically  !
 ! R16   R(13,18)                1.3878         calculate D2E/DX2 analytically  !
 ! R17   R(14,15)                1.3814         calculate D2E/DX2 analytically  !
 ! R18   R(14,19)                1.0821         calculate D2E/DX2 analytically  !
 ! R19   R(15,16)                1.3894         calculate D2E/DX2 analytically  !
 ! R20   R(15,20)                1.0827         calculate D2E/DX2 analytically  !
 ! R21   R(16,17)                1.3833         calculate D2E/DX2 analytically  !
 ! R22   R(16,21)                1.0825         calculate D2E/DX2 analytically  !
 ! R23   R(17,18)                1.3896         calculate D2E/DX2 analytically  !
 ! R24   R(17,22)                1.0826         calculate D2E/DX2 analytically  !
 ! R25   R(18,23)                1.0788         calculate D2E/DX2 analytically  !
 ! R26   R(24,25)                1.0892         calculate D2E/DX2 analytically  !
 ! R27   R(24,26)                1.0957         calculate D2E/DX2 analytically  !
 ! R28   R(24,27)                1.091          calculate D2E/DX2 analytically  !
 ! R29   R(28,29)                1.0934         calculate D2E/DX2 analytically  !
 ! R30   R(28,30)                1.0909         calculate D2E/DX2 analytically  !
 ! R31   R(28,31)                1.0884         calculate D2E/DX2 analytically  !
 ! A1    A(2,1,4)              119.9391         calculate D2E/DX2 analytically  !
 ! A2    A(2,1,24)             119.2882         calculate D2E/DX2 analytically  !
 ! A3    A(4,1,24)             120.5363         calculate D2E/DX2 analytically  !
 ! A4    A(1,2,3)              125.639          calculate D2E/DX2 analytically  !
 ! A5    A(1,2,28)             116.8905         calculate D2E/DX2 analytically  !
 ! A6    A(3,2,28)             117.466          calculate D2E/DX2 analytically  !
 ! A7    A(1,4,9)              108.4419         calculate D2E/DX2 analytically  !
 ! A8    A(1,4,12)             114.8718         calculate D2E/DX2 analytically  !
 ! A9    A(1,4,13)             121.4956         calculate D2E/DX2 analytically  !
 ! A10   A(9,4,12)              94.9219         calculate D2E/DX2 analytically  !
 ! A11   A(9,4,13)             106.898          calculate D2E/DX2 analytically  !
 ! A12   A(12,4,13)            106.7016         calculate D2E/DX2 analytically  !
 ! A13   A(6,5,7)              109.9907         calculate D2E/DX2 analytically  !
 ! A14   A(6,5,8)              108.9075         calculate D2E/DX2 analytically  !
 ! A15   A(6,5,9)              109.6004         calculate D2E/DX2 analytically  !
 ! A16   A(7,5,8)              109.5456         calculate D2E/DX2 analytically  !
 ! A17   A(7,5,9)              110.8906         calculate D2E/DX2 analytically  !
 ! A18   A(8,5,9)              107.8562         calculate D2E/DX2 analytically  !
 ! A19   A(4,9,5)              112.7036         calculate D2E/DX2 analytically  !
 ! A20   A(4,9,10)             100.7244         calculate D2E/DX2 analytically  !
 ! A21   A(4,9,11)             113.1539         calculate D2E/DX2 analytically  !
 ! A22   A(5,9,10)             110.2375         calculate D2E/DX2 analytically  !
 ! A23   A(5,9,11)             112.6888         calculate D2E/DX2 analytically  !
 ! A24   A(10,9,11)            106.4526         calculate D2E/DX2 analytically  !
 ! A25   A(4,13,14)            116.2361         calculate D2E/DX2 analytically  !
 ! A26   A(4,13,18)            125.3339         calculate D2E/DX2 analytically  !
 ! A27   A(14,13,18)           118.2477         calculate D2E/DX2 analytically  !
 ! A28   A(13,14,15)           121.0701         calculate D2E/DX2 analytically  !
 ! A29   A(13,14,19)           119.0032         calculate D2E/DX2 analytically  !
 ! A30   A(15,14,19)           119.924          calculate D2E/DX2 analytically  !
 ! A31   A(14,15,16)           120.2208         calculate D2E/DX2 analytically  !
 ! A32   A(14,15,20)           119.5871         calculate D2E/DX2 analytically  !
 ! A33   A(16,15,20)           120.192          calculate D2E/DX2 analytically  !
 ! A34   A(15,16,17)           119.1895         calculate D2E/DX2 analytically  !
 ! A35   A(15,16,21)           120.4228         calculate D2E/DX2 analytically  !
 ! A36   A(17,16,21)           120.3868         calculate D2E/DX2 analytically  !
 ! A37   A(16,17,18)           120.5065         calculate D2E/DX2 analytically  !
 ! A38   A(16,17,22)           120.2428         calculate D2E/DX2 analytically  !
 ! A39   A(18,17,22)           119.2506         calculate D2E/DX2 analytically  !
 ! A40   A(13,18,17)           120.7447         calculate D2E/DX2 analytically  !
 ! A41   A(13,18,23)           121.847          calculate D2E/DX2 analytically  !
 ! A42   A(17,18,23)           117.4029         calculate D2E/DX2 analytically  !
 ! A43   A(1,24,25)            111.6083         calculate D2E/DX2 analytically  !
 ! A44   A(1,24,26)            112.7515         calculate D2E/DX2 analytically  !
 ! A45   A(1,24,27)            111.7655         calculate D2E/DX2 analytically  !
 ! A46   A(25,24,26)           106.5742         calculate D2E/DX2 analytically  !
 ! A47   A(25,24,27)           106.6269         calculate D2E/DX2 analytically  !
 ! A48   A(26,24,27)           107.1407         calculate D2E/DX2 analytically  !
 ! A49   A(2,28,29)            109.9663         calculate D2E/DX2 analytically  !
 ! A50   A(2,28,30)            112.4911         calculate D2E/DX2 analytically  !
 ! A51   A(2,28,31)            108.8588         calculate D2E/DX2 analytically  !
 ! A52   A(29,28,30)           107.2594         calculate D2E/DX2 analytically  !
 ! A53   A(29,28,31)           108.3888         calculate D2E/DX2 analytically  !
 ! A54   A(30,28,31)           109.7923         calculate D2E/DX2 analytically  !
 ! D1    D(4,1,2,3)              7.1539         calculate D2E/DX2 analytically  !
 ! D2    D(4,1,2,28)          -173.641          calculate D2E/DX2 analytically  !
 ! D3    D(24,1,2,3)          -167.2908         calculate D2E/DX2 analytically  !
 ! D4    D(24,1,2,28)           11.9143         calculate D2E/DX2 analytically  !
 ! D5    D(2,1,4,9)            -96.4018         calculate D2E/DX2 analytically  !
 ! D6    D(2,1,4,12)           158.8673         calculate D2E/DX2 analytically  !
 ! D7    D(2,1,4,13)            27.9073         calculate D2E/DX2 analytically  !
 ! D8    D(24,1,4,9)            77.9726         calculate D2E/DX2 analytically  !
 ! D9    D(24,1,4,12)          -26.7583         calculate D2E/DX2 analytically  !
 ! D10   D(24,1,4,13)         -157.7183         calculate D2E/DX2 analytically  !
 ! D11   D(2,1,24,25)          156.3956         calculate D2E/DX2 analytically  !
 ! D12   D(2,1,24,26)          -83.6827         calculate D2E/DX2 analytically  !
 ! D13   D(2,1,24,27)           37.0851         calculate D2E/DX2 analytically  !
 ! D14   D(4,1,24,25)          -18.0151         calculate D2E/DX2 analytically  !
 ! D15   D(4,1,24,26)          101.9066         calculate D2E/DX2 analytically  !
 ! D16   D(4,1,24,27)         -137.3256         calculate D2E/DX2 analytically  !
 ! D17   D(1,2,28,29)          -76.9626         calculate D2E/DX2 analytically  !
 ! D18   D(1,2,28,30)           42.5146         calculate D2E/DX2 analytically  !
 ! D19   D(1,2,28,31)          164.4322         calculate D2E/DX2 analytically  !
 ! D20   D(3,2,28,29)          102.3093         calculate D2E/DX2 analytically  !
 ! D21   D(3,2,28,30)         -138.2135         calculate D2E/DX2 analytically  !
 ! D22   D(3,2,28,31)          -16.296          calculate D2E/DX2 analytically  !
 ! D23   D(1,4,9,5)             53.1764         calculate D2E/DX2 analytically  !
 ! D24   D(1,4,9,10)           -64.2669         calculate D2E/DX2 analytically  !
 ! D25   D(1,4,9,11)          -177.5019         calculate D2E/DX2 analytically  !
 ! D26   D(12,4,9,5)           171.4521         calculate D2E/DX2 analytically  !
 ! D27   D(12,4,9,10)           54.0088         calculate D2E/DX2 analytically  !
 ! D28   D(12,4,9,11)          -59.2262         calculate D2E/DX2 analytically  !
 ! D29   D(13,4,9,5)           -79.4231         calculate D2E/DX2 analytically  !
 ! D30   D(13,4,9,10)          163.1337         calculate D2E/DX2 analytically  !
 ! D31   D(13,4,9,11)           49.8987         calculate D2E/DX2 analytically  !
 ! D32   D(1,4,13,14)           52.5877         calculate D2E/DX2 analytically  !
 ! D33   D(1,4,13,18)         -132.4272         calculate D2E/DX2 analytically  !
 ! D34   D(9,4,13,14)          177.608          calculate D2E/DX2 analytically  !
 ! D35   D(9,4,13,18)           -7.4069         calculate D2E/DX2 analytically  !
 ! D36   D(12,4,13,14)         -81.7444         calculate D2E/DX2 analytically  !
 ! D37   D(12,4,13,18)          93.2407         calculate D2E/DX2 analytically  !
 ! D38   D(6,5,9,4)             70.6085         calculate D2E/DX2 analytically  !
 ! D39   D(6,5,9,10)          -177.7233         calculate D2E/DX2 analytically  !
 ! D40   D(6,5,9,11)           -58.9523         calculate D2E/DX2 analytically  !
 ! D41   D(7,5,9,4)           -167.7675         calculate D2E/DX2 analytically  !
 ! D42   D(7,5,9,10)           -56.0993         calculate D2E/DX2 analytically  !
 ! D43   D(7,5,9,11)            62.6716         calculate D2E/DX2 analytically  !
 ! D44   D(8,5,9,4)            -47.8221         calculate D2E/DX2 analytically  !
 ! D45   D(8,5,9,10)            63.8461         calculate D2E/DX2 analytically  !
 ! D46   D(8,5,9,11)          -177.3829         calculate D2E/DX2 analytically  !
 ! D47   D(4,13,14,15)         176.7676         calculate D2E/DX2 analytically  !
 ! D48   D(4,13,14,19)          -3.8236         calculate D2E/DX2 analytically  !
 ! D49   D(18,13,14,15)          1.411          calculate D2E/DX2 analytically  !
 ! D50   D(18,13,14,19)       -179.1802         calculate D2E/DX2 analytically  !
 ! D51   D(4,13,18,17)        -176.5956         calculate D2E/DX2 analytically  !
 ! D52   D(4,13,18,23)           4.2705         calculate D2E/DX2 analytically  !
 ! D53   D(14,13,18,17)         -1.7022         calculate D2E/DX2 analytically  !
 ! D54   D(14,13,18,23)        179.1639         calculate D2E/DX2 analytically  !
 ! D55   D(13,14,15,16)         -0.3117         calculate D2E/DX2 analytically  !
 ! D56   D(13,14,15,20)        179.6239         calculate D2E/DX2 analytically  !
 ! D57   D(19,14,15,16)       -179.715          calculate D2E/DX2 analytically  !
 ! D58   D(19,14,15,20)          0.2206         calculate D2E/DX2 analytically  !
 ! D59   D(14,15,16,17)         -0.5196         calculate D2E/DX2 analytically  !
 ! D60   D(14,15,16,21)        179.8155         calculate D2E/DX2 analytically  !
 ! D61   D(20,15,16,17)        179.5452         calculate D2E/DX2 analytically  !
 ! D62   D(20,15,16,21)         -0.1197         calculate D2E/DX2 analytically  !
 ! D63   D(15,16,17,18)          0.2261         calculate D2E/DX2 analytically  !
 ! D64   D(15,16,17,22)       -179.644          calculate D2E/DX2 analytically  !
 ! D65   D(21,16,17,18)        179.8912         calculate D2E/DX2 analytically  !
 ! D66   D(21,16,17,22)          0.0211         calculate D2E/DX2 analytically  !
 ! D67   D(16,17,18,13)          0.9083         calculate D2E/DX2 analytically  !
 ! D68   D(16,17,18,23)       -179.9203         calculate D2E/DX2 analytically  !
 ! D69   D(22,17,18,13)       -179.2203         calculate D2E/DX2 analytically  !
 ! D70   D(22,17,18,23)         -0.049          calculate D2E/DX2 analytically  !
 --------------------------------------------------------------------------------
 Trust Radius=5.00D-02 FncErr=1.00D-07 GrdErr=1.00D-06 EigMax=2.50D+02 EigMin=1.00D-04
 Number of steps in this run=     70 maximum allowed number of steps=    186.
 Search for a saddle point of order  1.
 GradGradGradGradGradGradGradGradGradGradGradGradGradGradGradGradGradGrad

                          Input orientation:                          
 ---------------------------------------------------------------------
 Center     Atomic      Atomic             Coordinates (Angstroms)
 Number     Number       Type             X           Y           Z
 ---------------------------------------------------------------------
      1          6           0        1.504270    0.273570   -0.332700
      2          6           0        1.411910    1.569030    0.270930
      3          8           0        0.490070    1.961720    1.001190
      4          6           0        0.426770   -0.621080   -0.239560
      5          6           0        1.029990   -1.072620    2.437780
      6          1           0        0.125430   -0.592860    2.800990
      7          1           0        1.417360   -1.756260    3.191860
      8          1           0        1.773780   -0.307050    2.223750
      9          7           0        0.743100   -1.780200    1.190570
     10          1           0        1.572750   -2.263140    0.862220
     11          1           0        0.022670   -2.487100    1.298260
     12         17           0        0.408900   -1.932720   -1.502760
     13          6           0       -0.993250   -0.132520   -0.101980
     14          6           0       -1.421340    0.796040   -1.052680
     15          6           0       -2.722510    1.259880   -1.060720
     16          6           0       -3.634540    0.800520   -0.118570
     17          6           0       -3.225630   -0.132460    0.817250
     18          6           0       -1.917930   -0.602460    0.819960
     19          1           0       -0.713820    1.160500   -1.785780
     20          1           0       -3.027120    1.984570   -1.805240
     21          1           0       -4.654150    1.164010   -0.120010
     22          1           0       -3.923620   -0.506300    1.555480
     23          1           0       -1.653460   -1.330300    1.571070
     24          6           0        2.812500   -0.161070   -0.955510
     25          1           0        2.894720   -1.246280   -0.999710
     26          1           0        2.935290    0.203730   -1.981390
     27          1           0        3.670770    0.193980   -0.383090
     28          6           0        2.554760    2.535780    0.002900
     29          1           0        3.420230    2.269930    0.615950
     30          1           0        2.878850    2.520320   -1.038600
     31          1           0        2.236810    3.540520    0.275070
 ---------------------------------------------------------------------
                    Distance matrix (angstroms):
                    1          2          3          4          5
     1  C    0.000000
     2  C    1.432172   0.000000
     3  O    2.378595   1.239869   0.000000
     4  C    1.403595   2.455134   2.866064   0.000000
     5  C    3.116525   3.437938   3.400371   2.781351   0.000000
     6  H    3.531560   3.567913   3.146128   3.055576   1.086425
     7  H    4.068204   4.425993   4.413873   3.747605   1.089062
     8  H    2.635373   2.732056   2.879215   2.825057   1.088637
     9  N    2.667902   3.537002   3.755244   1.867859   1.462364
    10  H    2.804892   3.880853   4.363594   2.285509   2.048003
    11  H    3.532204   4.408808   4.483159   2.451575   2.077006
    12  Cl   2.727011   4.051451   4.630661   1.821097   4.080855
    13  C    2.540816   2.969702   2.793396   1.508004   3.380484
    14  C    3.057865   3.221298   3.038203   2.466760   4.656632
    15  C    4.400965   4.354572   3.881330   3.759026   5.635718
    16  C    5.170193   5.119470   4.428844   4.304628   5.639275
    17  C    4.884588   4.969941   4.269174   3.833487   4.649766
    18  C    3.715845   4.013058   3.522262   2.573042   3.395383
    19  H    2.796070   2.985914   3.139826   2.620261   5.085878
    20  H    5.062548   4.918144   4.499689   4.601100   6.618895
    21  H    6.226095   6.092123   5.325076   5.386705   6.622254
    22  H    5.799604   5.867277   5.087143   4.707572   5.063341
    23  H    4.020945   4.415085   3.969494   2.847583   2.831694
    24  C    1.512703   2.541467   3.705212   2.532963   3.939884
    25  H    2.165225   3.426255   4.480760   2.656968   3.914551
    26  H    2.184233   3.042643   4.238563   3.163377   4.978785
    27  H    2.168547   2.724143   3.893326   3.347904   4.066362
    28  C    2.516694   1.520708   2.364122   3.814825   4.612387
    29  H    2.925114   2.154913   2.971404   4.248604   4.494992
    30  H    2.726839   2.184430   3.190462   4.064426   5.330358
    31  H    3.402787   2.137113   2.463932   4.567275   5.235913
                    6          7          8          9         10
     6  H    0.000000
     7  H    1.781955   0.000000
     8  H    1.769732   1.778899   0.000000
     9  N    2.093978   2.111957   2.073628   0.000000
    10  H    2.939966   2.389204   2.391749   1.014576   0.000000
    11  H    2.420104   2.462724   2.945426   1.015049   1.625742
    12  Cl   4.516397   4.804954   4.288657   2.718268   2.656474
    13  C    3.144931   4.392830   3.618831   2.720376   3.471826
    14  C    4.378620   5.708640   4.707504   4.044006   4.689350
    15  C    5.143560   6.657331   5.784431   5.130385   5.878659
    16  C    4.960112   6.558793   5.996924   5.247637   6.120770
    17  C    3.921326   5.461946   5.196424   4.313378   5.250359
    18  C    2.846031   4.252214   3.960633   2.933514   3.865811
    19  H    4.981674   6.150310   4.941476   4.430462   4.895060
    20  H    6.148095   7.662781   6.673299   6.112522   6.805673
    21  H    5.870538   7.507309   6.998251   6.286199   7.175264
    22  H    4.237168   5.724177   5.739917   4.851212   5.811814
    23  H    2.284944   3.498334   3.635795   2.467932   3.432359
    24  C    4.638758   4.657438   3.347827   3.392589   3.042995
    25  H    4.747762   4.473470   3.539683   3.116387   2.499678
    26  H    5.603662   5.736566   4.392403   4.336243   4.003509
    27  H    4.829795   4.654198   3.262701   3.865882   3.462647
    28  C    4.849674   5.466695   3.691041   4.829115   4.973169
    29  H    4.881155   5.182375   3.454945   4.888841   4.901281
    30  H    5.658238   6.190467   4.456246   5.293874   5.310415
    31  H    5.284224   6.102052   4.337689   5.601729   5.870962
                   11         12         13         14         15
    11  H    0.000000
    12  Cl   2.881358   0.000000
    13  C    2.921782   2.677486   0.000000
    14  C    4.288484   3.316396   1.396179   0.000000
    15  C    5.209670   4.493754   2.418326   1.381396   0.000000
    16  C    5.117718   5.073065   2.801295   2.402256   1.389409
    17  C    4.040687   4.672600   2.414230   2.759386   2.391341
    18  C    2.747102   3.546654   1.387750   2.389390   2.766336
    19  H    4.833085   3.302819   2.141300   1.082059   2.137855
    20  H    6.239292   5.219472   3.394082   2.134825   1.082716
    21  H    6.100388   6.093949   3.883749   3.384721   2.150665
    22  H    4.423001   5.491651   3.387322   3.841874   3.377360
    23  H    2.054756   3.750289   2.160937   3.385154   3.844245
    24  C    4.274698   3.035707   3.900392   4.341763   5.715462
    25  H    3.881877   2.627463   4.142788   4.775170   6.151246
    26  H    5.145875   3.343075   4.367914   4.493724   5.828704
    27  H    4.829468   4.051705   4.683877   5.171113   6.516852
    28  C    5.772241   5.180658   4.440631   4.466578   5.532521
    29  H    5.885431   5.587424   5.076022   5.328928   6.447067
    30  H    6.220364   5.113283   4.786228   4.633031   5.741466
    31  H    6.502425   6.038070   4.905780   4.762053   5.619654
                   16         17         18         19         20
    16  C    0.000000
    17  C    1.383264   0.000000
    18  C    2.407476   1.389599   0.000000
    19  H    3.382274   3.841445   3.368648   0.000000
    20  H    2.148439   3.376193   3.848987   2.455774   0.000000
    21  H    1.082466   2.144752   3.389817   4.277967   2.482045
    22  H    2.143313   1.082557   2.138464   4.923927   4.278152
    23  H    3.364514   2.115368   1.078824   4.284326   4.926944
    24  C    6.571868   6.293053   5.071892   3.856271   6.279090
    25  H    6.899060   6.480789   5.185297   4.408181   6.793781
    26  H    6.854847   6.775127   5.661382   3.777522   6.225171
    27  H    7.335218   7.007690   5.771933   4.703863   7.077461
    28  C    6.429099   6.418378   5.524590   3.971698   5.893266
    29  H    7.243512   7.069615   6.065327   4.908107   6.892889
    30  H    6.799148   6.909855   6.017898   3.913396   5.979569
    31  H    6.491171   6.604770   5.892627   4.314837   5.870062
                   21         22         23         24         25
    21  H    0.000000
    22  H    2.476061   0.000000
    23  H    4.252702   2.415128   0.000000
    24  C    7.629204   7.197192   5.262652   0.000000
    25  H    7.973005   7.318902   5.225123   1.089217   0.000000
    26  H    7.873149   7.749725   6.002487   1.095713   1.751534
    27  H    8.385372   7.869130   5.872784   1.091033   1.748377
    28  C    7.339294   7.323535   5.925778   2.873670   3.927439
    29  H    8.182928   7.907105   6.294143   2.957800   3.905157
    30  H    7.709051   7.884369   6.494574   2.683497   3.766834
    31  H    7.299946   7.481116   6.367001   3.943034   4.997136
                   26         27         28         29         30
    26  H    0.000000
    27  H    1.759429   0.000000
    28  C    3.085558   2.622688   0.000000
    29  H    3.354180   2.317417   1.093410   0.000000
    30  H    2.501725   2.543362   1.090869   1.758785   0.000000
    31  H    4.088234   3.699831   1.088426   1.769486   1.782906
                   31
    31  H    0.000000
 Stoichiometry    C12H16ClNO
 Framework group  C1[X(C12H16ClNO)]
 Deg. of freedom    87
 Full point group                 C1      NOp   1
 Largest Abelian subgroup         C1      NOp   1
 Largest concise Abelian subgroup C1      NOp   1
                         Standard orientation:                         
 ---------------------------------------------------------------------
 Center     Atomic      Atomic             Coordinates (Angstroms)
 Number     Number       Type             X           Y           Z
 ---------------------------------------------------------------------
      1          6           0        1.504270    0.273569   -0.332700
      2          6           0        1.411910    1.569029    0.270930
      3          8           0        0.490070    1.961719    1.001190
      4          6           0        0.426769   -0.621081   -0.239560
      5          6           0        1.029989   -1.072621    2.437780
      6          1           0        0.125429   -0.592860    2.800990
      7          1           0        1.417359   -1.756261    3.191860
      8          1           0        1.773780   -0.307051    2.223750
      9          7           0        0.743099   -1.780201    1.190570
     10          1           0        1.572749   -2.263141    0.862220
     11          1           0        0.022669   -2.487100    1.298260
     12         17           0        0.408899   -1.932720   -1.502760
     13          6           0       -0.993250   -0.132520   -0.101980
     14          6           0       -1.421340    0.796040   -1.052680
     15          6           0       -2.722510    1.259880   -1.060720
     16          6           0       -3.634540    0.800520   -0.118570
     17          6           0       -3.225630   -0.132460    0.817250
     18          6           0       -1.917931   -0.602460    0.819960
     19          1           0       -0.713820    1.160500   -1.785780
     20          1           0       -3.027120    1.984570   -1.805240
     21          1           0       -4.654150    1.164011   -0.120010
     22          1           0       -3.923621   -0.506300    1.555480
     23          1           0       -1.653461   -1.330300    1.571070
     24          6           0        2.812500   -0.161071   -0.955510
     25          1           0        2.894719   -1.246281   -0.999710
     26          1           0        2.935290    0.203729   -1.981390
     27          1           0        3.670770    0.193979   -0.383090
     28          6           0        2.554760    2.535779    0.002900
     29          1           0        3.420230    2.269929    0.615950
     30          1           0        2.878850    2.520319   -1.038600
     31          1           0        2.236810    3.540519    0.275070
 ---------------------------------------------------------------------
 Rotational constants (GHZ):           0.6847888           0.4570586           0.3956990
 Standard basis: def2TZVP (5D, 7F)
 There are   642 symmetry adapted cartesian basis functions of A   symmetry.
 There are   567 symmetry adapted basis functions of A   symmetry.
   567 basis functions,   911 primitive gaussians,   642 cartesian basis functions
    60 alpha electrons       60 beta electrons
       nuclear repulsion energy      1155.3863340278 Hartrees.
 NAtoms=   31 NActive=   31 NUniq=   31 SFac= 1.00D+00 NAtFMM=   60 NAOKFM=F Big=F
 Integral buffers will be    131072 words long.
 Raffenetti 2 integral format.
 Two-electron integral symmetry is turned on.
 Nuclear repulsion after empirical dispersion term =     1155.3609566318 Hartrees.
 Force inversion solution in PCM.
 ------------------------------------------------------------------------------
 Polarizable Continuum Model (PCM)
 =================================
 Model                : PCM.
 Atomic radii         : UFF (Universal Force Field).
 Polarization charges : Total charges.
 Charge compensation  : None.
 Solution method      : Matrix inversion.
 Cavity type          : Scaled VdW (van der Waals Surface) (Alpha=1.100).
 Cavity algorithm     : GePol (No added spheres)
                        Default sphere list used, NSphG=   31.
                        Lebedev-Laikov grids with approx.  5.0 points / Ang**2.
                        Smoothing algorithm: York/Karplus (Gamma=1.0000).
                        Polarization charges: spherical gaussians, with
                                              point-specific exponents (IZeta= 3).
                        Self-potential: point-specific (ISelfS= 7).
                        Self-field    : sphere-specific E.n sum rule (ISelfD= 2).
 1st derivatives      : Analytical E(r).r(x)/FMM algorithm (CHGder, D1EAlg=3).
                        Cavity 1st derivative terms included.
 2nd derivatives      : Analytical E(r).r(xy)/FMM algorithm (CHGder, D2EAlg=3).
                        Cavity 2nd derivative terms included.
 Solvent              : Water, Eps=  78.355300 Eps(inf)=   1.777849
 ------------------------------------------------------------------------------
 One-electron integrals computed using PRISM.
   1 Symmetry operations used in ECPInt.
 ECPInt:  NShTT=   26796 NPrTT=   81798 LenC2=   25215 LenP2D=   56941.
 LDataN:  DoStor=T MaxTD1= 6 Len=  172
 NBasis=   567 RedAO= T EigKep=  6.96D-06  NBF=   567
 NBsUse=   567 1.00D-06 EigRej= -1.00D+00 NBFU=   567
 ExpMin= 9.52D-02 ExpMax= 6.95D+04 ExpMxC= 2.37D+03 IAcc=3 IRadAn=         5 AccDes= 0.00D+00
 Harris functional with IExCor= 4639 and IRadAn=       5 diagonalized for initial guess.
 HarFok:  IExCor= 4639 AccDes= 0.00D+00 IRadAn=         5 IDoV= 1 UseB2=F ITyADJ=14
 ICtDFT=  3500011 ScaDFX=  1.000000  1.000000  1.000000  1.000000
 FoFCou: FMM=F IPFlag=           0 FMFlag=      100000 FMFlg1=           0
         NFxFlg=           0 DoJE=T BraDBF=F KetDBF=T FulRan=T
         wScrn=  0.000000 ICntrl=       500 IOpCl=  0 I1Cent=   200000004 NGrid=           0
         NMat0=    1 NMatS0=      1 NMatT0=    0 NMatD0=    1 NMtDS0=    0 NMtDT0=    0
 Petite list used in FoFCou.
 Requested convergence on RMS density matrix=1.00D-08 within 128 cycles.
 Requested convergence on MAX density matrix=1.00D-06.
 Requested convergence on             energy=1.00D-06.
 No special actions if energy rises.
 Inv3:  Mode=1 IEnd=    14362032.
 Iteration    1 A*A^-1 deviation from unit magnitude is 6.88D-15 for   2184.
 Iteration    1 A*A^-1 deviation from orthogonality  is 2.05D-15 for   1787    858.
 Iteration    1 A^-1*A deviation from unit magnitude is 7.11D-15 for   2184.
 Iteration    1 A^-1*A deviation from orthogonality  is 1.51D-15 for   1625    556.
 Error on total polarization charges =  0.01518
 SCF Done:  E(RwB97XD) =  -1057.07522153     A.U. after   15 cycles
            NFock= 15  Conv=0.42D-08     -V/T= 2.0034
 DoSCS=F DFT=T ScalE2(SS,OS)=  1.000000  1.000000
 Range of M.O.s used for correlation:     1   567
 NBasis=   567 NAE=    60 NBE=    60 NFC=     0 NFV=     0
 NROrb=    567 NOA=    60 NOB=    60 NVA=   507 NVB=   507

 **** Warning!!: The largest alpha MO coefficient is  0.50033504D+02

   1 Symmetry operations used in ECPInt.
 ECPInt:  NShTT=   26796 NPrTT=   81798 LenC2=   25215 LenP2D=   56941.
 LDataN:  DoStor=T MaxTD1= 7 Len=  274
 Symmetrizing basis deriv contribution to polar:
 IMax=3 JMax=2 DiffMx= 0.00D+00
 G2DrvN: will do    32 centers at a time, making    1 passes.
 Calling FoFCou, ICntrl=  3107 FMM=F I1Cent=   0 AccDes= 0.00D+00.
 NEqPCM:  Using equilibrium solvation (IEInf=0, Eps=  78.3553, EpsInf=   1.7778)
 G2PCM: DoFxE=T DoFxN=T DoGrad=T DoDP/DQ/DG/TGxP=FFFF NFrqRd=   0 IEInf=0 SqF1=F DoCFld=F IF1Alg=4.
 End of G2Drv F.D. properties file   721 does not exist.
 End of G2Drv F.D. properties file   722 does not exist.
 End of G2Drv F.D. properties file   788 does not exist.
          IDoAtm=1111111111111111111111111111111
 NEqPCM:  Using equilibrium solvation (IEInf=0, Eps=  78.3553, EpsInf=   1.7778)
          Differentiating once with respect to nuclear coordinates.
 CalDSu exits because no D1Ps are significant.
          There are    96 degrees of freedom in the 1st order CPHF.  IDoFFX=6 NUNeed=     0.
     90 vectors produced by pass  0 Test12= 3.17D-14 1.04D-09 XBig12= 1.01D-01 1.05D-01.
 AX will form    90 AO Fock derivatives at one time.
     90 vectors produced by pass  1 Test12= 3.17D-14 1.04D-09 XBig12= 1.22D-02 2.19D-02.
     90 vectors produced by pass  2 Test12= 3.17D-14 1.04D-09 XBig12= 3.92D-04 3.08D-03.
     90 vectors produced by pass  3 Test12= 3.17D-14 1.04D-09 XBig12= 5.88D-06 3.12D-04.
     90 vectors produced by pass  4 Test12= 3.17D-14 1.04D-09 XBig12= 6.81D-08 2.67D-05.
     90 vectors produced by pass  5 Test12= 3.17D-14 1.04D-09 XBig12= 5.05D-10 1.93D-06.
     90 vectors produced by pass  6 Test12= 3.17D-14 1.04D-09 XBig12= 3.46D-12 1.54D-07.
     45 vectors produced by pass  7 Test12= 3.17D-14 1.04D-09 XBig12= 2.78D-14 1.35D-08.
      9 vectors produced by pass  8 Test12= 3.17D-14 1.04D-09 XBig12= 7.14D-15 7.27D-09.
      5 vectors produced by pass  9 Test12= 3.17D-14 1.04D-09 XBig12= 6.91D-15 6.05D-09.
      4 vectors produced by pass 10 Test12= 3.17D-14 1.04D-09 XBig12= 3.83D-15 5.26D-09.
      2 vectors produced by pass 11 Test12= 3.17D-14 1.04D-09 XBig12= 1.16D-15 2.41D-09.
 InvSVY:  IOpt=1 It=  1 EMax= 5.00D-16
 Solved reduced A of dimension   695 with    96 vectors.
 End of Minotr F.D. properties file   721 does not exist.
 End of Minotr F.D. properties file   722 does not exist.
 End of Minotr F.D. properties file   788 does not exist.

 **********************************************************************

            Population analysis using the SCF density.

 **********************************************************************

 Orbital symmetries:
       Occupied  (A) (A) (A) (A) (A) (A) (A) (A) (A) (A) (A) (A)
                 (A) (A) (A) (A) (A) (A) (A) (A) (A) (A) (A) (A)
                 (A) (A) (A) (A) (A) (A) (A) (A) (A) (A) (A) (A)
                 (A) (A) (A) (A) (A) (A) (A) (A) (A) (A) (A) (A)
                 (A) (A) (A) (A) (A) (A) (A) (A) (A) (A) (A) (A)
       Virtual   (A) (A) (A) (A) (A) (A) (A) (A) (A) (A) (A) (A)
                 (A) (A) (A) (A) (A) (A) (A) (A) (A) (A) (A) (A)
                 (A) (A) (A) (A) (A) (A) (A) (A) (A) (A) (A) (A)
                 (A) (A) (A) (A) (A) (A) (A) (A) (A) (A) (A) (A)
                 (A) (A) (A) (A) (A) (A) (A) (A) (A) (A) (A) (A)
                 (A) (A) (A) (A) (A) (A) (A) (A) (A) (A) (A) (A)
                 (A) (A) (A) (A) (A) (A) (A) (A) (A) (A) (A) (A)
                 (A) (A) (A) (A) (A) (A) (A) (A) (A) (A) (A) (A)
                 (A) (A) (A) (A) (A) (A) (A) (A) (A) (A) (A) (A)
                 (A) (A) (A) (A) (A) (A) (A) (A) (A) (A) (A) (A)
                 (A) (A) (A) (A) (A) (A) (A) (A) (A) (A) (A) (A)
                 (A) (A) (A) (A) (A) (A) (A) (A) (A) (A) (A) (A)
                 (A) (A) (A) (A) (A) (A) (A) (A) (A) (A) (A) (A)
                 (A) (A) (A) (A) (A) (A) (A) (A) (A) (A) (A) (A)
                 (A) (A) (A) (A) (A) (A) (A) (A) (A) (A) (A) (A)
                 (A) (A) (A) (A) (A) (A) (A) (A) (A) (A) (A) (A)
                 (A) (A) (A) (A) (A) (A) (A) (A) (A) (A) (A) (A)
                 (A) (A) (A) (A) (A) (A) (A) (A) (A) (A) (A) (A)
                 (A) (A) (A) (A) (A) (A) (A) (A) (A) (A) (A) (A)
                 (A) (A) (A) (A) (A) (A) (A) (A) (A) (A) (A) (A)
                 (A) (A) (A) (A) (A) (A) (A) (A) (A) (A) (A) (A)
                 (A) (A) (A) (A) (A) (A) (A) (A) (A) (A) (A) (A)
                 (A) (A) (A) (A) (A) (A) (A) (A) (A) (A) (A) (A)
                 (A) (A) (A) (A) (A) (A) (A) (A) (A) (A) (A) (A)
                 (A) (A) (A) (A) (A) (A) (A) (A) (A) (A) (A) (A)
                 (A) (A) (A) (A) (A) (A) (A) (A) (A) (A) (A) (A)
                 (A) (A) (A) (A) (A) (A) (A) (A) (A) (A) (A) (A)
                 (A) (A) (A) (A) (A) (A) (A) (A) (A) (A) (A) (A)
                 (A) (A) (A) (A) (A) (A) (A) (A) (A) (A) (A) (A)
                 (A) (A) (A) (A) (A) (A) (A) (A) (A) (A) (A) (A)
                 (A) (A) (A) (A) (A) (A) (A) (A) (A) (A) (A) (A)
                 (A) (A) (A) (A) (A) (A) (A) (A) (A) (A) (A) (A)
                 (A) (A) (A) (A) (A) (A) (A) (A) (A) (A) (A) (A)
                 (A) (A) (A) (A) (A) (A) (A) (A) (A) (A) (A) (A)
                 (A) (A) (A) (A) (A) (A) (A) (A) (A) (A) (A) (A)
                 (A) (A) (A) (A) (A) (A) (A) (A) (A) (A) (A) (A)
                 (A) (A) (A) (A) (A) (A) (A) (A) (A) (A) (A) (A)
                 (A) (A) (A) (A) (A) (A) (A) (A) (A) (A) (A) (A)
                 (A) (A) (A) (A) (A) (A) (A) (A) (A) (A) (A) (A)
                 (A) (A) (A) (A) (A) (A) (A) (A) (A) (A) (A) (A)
                 (A) (A) (A) (A) (A) (A) (A) (A) (A) (A) (A) (A)
                 (A) (A) (A) (A) (A) (A) (A) (A) (A) (A) (A) (A)
                 (A) (A) (A)
 The electronic state is 1-A.
 Alpha  occ. eigenvalues -- -101.69463 -19.19347 -14.50156 -10.40626 -10.34376
 Alpha  occ. eigenvalues --  -10.31937 -10.31304 -10.29610 -10.29220 -10.29138
 Alpha  occ. eigenvalues --  -10.29094 -10.29047 -10.27024 -10.26644 -10.25755
 Alpha  occ. eigenvalues --   -9.58073  -7.32686  -7.31872  -7.31830  -1.10116
 Alpha  occ. eigenvalues --   -1.05728  -0.98415  -0.95534  -0.88181  -0.86405
 Alpha  occ. eigenvalues --   -0.85442  -0.81354  -0.79590  -0.77713  -0.71637
 Alpha  occ. eigenvalues --   -0.70820  -0.67768  -0.65206  -0.61409  -0.59070
 Alpha  occ. eigenvalues --   -0.58110  -0.56562  -0.55523  -0.54018  -0.53210
 Alpha  occ. eigenvalues --   -0.52706  -0.51562  -0.51019  -0.49292  -0.48756
 Alpha  occ. eigenvalues --   -0.48151  -0.47388  -0.46538  -0.45820  -0.45659
 Alpha  occ. eigenvalues --   -0.45153  -0.43165  -0.42910  -0.41963  -0.39781
 Alpha  occ. eigenvalues --   -0.39403  -0.34118  -0.33767  -0.30371  -0.26747
 Alpha virt. eigenvalues --    0.03265   0.05068   0.05407   0.09440   0.10059
 Alpha virt. eigenvalues --    0.12152   0.13334   0.14209   0.15580   0.15730
 Alpha virt. eigenvalues --    0.16415   0.17175   0.17708   0.18278   0.18673
 Alpha virt. eigenvalues --    0.19188   0.19588   0.20504   0.20749   0.22031
 Alpha virt. eigenvalues --    0.22295   0.23305   0.24214   0.24693   0.25058
 Alpha virt. eigenvalues --    0.25962   0.26624   0.27382   0.28270   0.28449
 Alpha virt. eigenvalues --    0.28645   0.29804   0.30464   0.30709   0.31350
 Alpha virt. eigenvalues --    0.31886   0.32583   0.33004   0.33613   0.34012
 Alpha virt. eigenvalues --    0.34708   0.35991   0.36988   0.37661   0.38373
 Alpha virt. eigenvalues --    0.39453   0.39556   0.40109   0.40647   0.41612
 Alpha virt. eigenvalues --    0.41925   0.42043   0.43407   0.44046   0.44642
 Alpha virt. eigenvalues --    0.45101   0.46359   0.47126   0.47405   0.47662
 Alpha virt. eigenvalues --    0.47963   0.48760   0.49482   0.49625   0.49959
 Alpha virt. eigenvalues --    0.50504   0.50738   0.51716   0.52297   0.52598
 Alpha virt. eigenvalues --    0.53121   0.53818   0.54222   0.54974   0.55264
 Alpha virt. eigenvalues --    0.55452   0.56103   0.56384   0.56844   0.57615
 Alpha virt. eigenvalues --    0.58347   0.58634   0.59407   0.59842   0.60570
 Alpha virt. eigenvalues --    0.60643   0.61704   0.62838   0.63436   0.64804
 Alpha virt. eigenvalues --    0.65568   0.66405   0.67260   0.69614   0.70481
 Alpha virt. eigenvalues --    0.71383   0.72169   0.73084   0.73347   0.74678
 Alpha virt. eigenvalues --    0.74984   0.75600   0.77336   0.77811   0.78179
 Alpha virt. eigenvalues --    0.79185   0.80080   0.80927   0.81214   0.82002
 Alpha virt. eigenvalues --    0.84658   0.85261   0.86383   0.87161   0.87660
 Alpha virt. eigenvalues --    0.88451   0.90406   0.91266   0.91634   0.93328
 Alpha virt. eigenvalues --    0.93991   0.95361   0.96130   0.96870   0.97586
 Alpha virt. eigenvalues --    0.99465   0.99842   1.01656   1.02780   1.03431
 Alpha virt. eigenvalues --    1.04314   1.05120   1.06313   1.06983   1.08862
 Alpha virt. eigenvalues --    1.09852   1.10567   1.11373   1.12208   1.13840
 Alpha virt. eigenvalues --    1.14104   1.14609   1.16543   1.17600   1.20126
 Alpha virt. eigenvalues --    1.21105   1.22164   1.22599   1.23433   1.25813
 Alpha virt. eigenvalues --    1.26575   1.28385   1.29425   1.30243   1.30907
 Alpha virt. eigenvalues --    1.32295   1.33846   1.34505   1.35809   1.36502
 Alpha virt. eigenvalues --    1.38426   1.39922   1.40232   1.41287   1.41961
 Alpha virt. eigenvalues --    1.42836   1.43671   1.44903   1.46322   1.48147
 Alpha virt. eigenvalues --    1.49188   1.51262   1.52494   1.53741   1.55061
 Alpha virt. eigenvalues --    1.55910   1.57289   1.57830   1.58532   1.59954
 Alpha virt. eigenvalues --    1.60696   1.61831   1.62644   1.62995   1.64209
 Alpha virt. eigenvalues --    1.64514   1.65339   1.65737   1.67630   1.67778
 Alpha virt. eigenvalues --    1.68302   1.68760   1.70277   1.71781   1.72123
 Alpha virt. eigenvalues --    1.73309   1.74598   1.75554   1.76553   1.77724
 Alpha virt. eigenvalues --    1.78155   1.78415   1.78810   1.80022   1.80845
 Alpha virt. eigenvalues --    1.81558   1.83267   1.84723   1.85542   1.87542
 Alpha virt. eigenvalues --    1.89741   1.90853   1.91672   1.92940   1.94732
 Alpha virt. eigenvalues --    1.95031   1.95395   1.96286   1.97141   1.98901
 Alpha virt. eigenvalues --    1.99851   2.00179   2.02694   2.03147   2.03584
 Alpha virt. eigenvalues --    2.05270   2.07154   2.07656   2.09175   2.09301
 Alpha virt. eigenvalues --    2.10384   2.11427   2.12309   2.13259   2.14379
 Alpha virt. eigenvalues --    2.14779   2.15965   2.17134   2.17894   2.19030
 Alpha virt. eigenvalues --    2.19604   2.20640   2.22364   2.23344   2.23865
 Alpha virt. eigenvalues --    2.24966   2.26691   2.27329   2.28503   2.29489
 Alpha virt. eigenvalues --    2.30104   2.31213   2.31673   2.32412   2.35227
 Alpha virt. eigenvalues --    2.35909   2.37274   2.38436   2.38862   2.40455
 Alpha virt. eigenvalues --    2.41609   2.42591   2.43702   2.45617   2.46561
 Alpha virt. eigenvalues --    2.46796   2.48312   2.49290   2.51613   2.52459
 Alpha virt. eigenvalues --    2.52574   2.54889   2.55307   2.56922   2.57531
 Alpha virt. eigenvalues --    2.58221   2.59431   2.60809   2.62185   2.63586
 Alpha virt. eigenvalues --    2.64510   2.65636   2.66780   2.67796   2.68103
 Alpha virt. eigenvalues --    2.68848   2.69600   2.70043   2.70604   2.71645
 Alpha virt. eigenvalues --    2.74051   2.74800   2.75117   2.76048   2.76783
 Alpha virt. eigenvalues --    2.77117   2.78240   2.79386   2.79693   2.80808
 Alpha virt. eigenvalues --    2.81988   2.83690   2.84569   2.85277   2.86112
 Alpha virt. eigenvalues --    2.86501   2.87410   2.88877   2.89776   2.90735
 Alpha virt. eigenvalues --    2.91766   2.93254   2.94362   2.95241   2.95615
 Alpha virt. eigenvalues --    2.96434   2.97931   2.98331   2.99616   3.00973
 Alpha virt. eigenvalues --    3.01759   3.02976   3.06172   3.07538   3.08800
 Alpha virt. eigenvalues --    3.10342   3.11725   3.12031   3.12986   3.14472
 Alpha virt. eigenvalues --    3.15994   3.16142   3.17430   3.17788   3.19627
 Alpha virt. eigenvalues --    3.22242   3.22442   3.22806   3.23539   3.24185
 Alpha virt. eigenvalues --    3.25191   3.25712   3.26067   3.27956   3.29184
 Alpha virt. eigenvalues --    3.29279   3.30055   3.31298   3.32000   3.33450
 Alpha virt. eigenvalues --    3.34033   3.35109   3.35823   3.36585   3.37257
 Alpha virt. eigenvalues --    3.38244   3.39054   3.39350   3.40337   3.41919
 Alpha virt. eigenvalues --    3.42840   3.43437   3.44546   3.46453   3.46967
 Alpha virt. eigenvalues --    3.47446   3.48020   3.49691   3.50745   3.51233
 Alpha virt. eigenvalues --    3.51962   3.53268   3.54412   3.56245   3.56369
 Alpha virt. eigenvalues --    3.57411   3.58800   3.60313   3.62233   3.63195
 Alpha virt. eigenvalues --    3.63939   3.65015   3.65811   3.66366   3.68166
 Alpha virt. eigenvalues --    3.69128   3.69873   3.70332   3.74689   3.74940
 Alpha virt. eigenvalues --    3.77330   3.77729   3.78712   3.80188   3.81125
 Alpha virt. eigenvalues --    3.84598   3.86625   3.87624   3.88256   3.90658
 Alpha virt. eigenvalues --    3.92416   3.93036   3.94326   3.98009   3.98699
 Alpha virt. eigenvalues --    4.01420   4.01876   4.05238   4.05890   4.06345
 Alpha virt. eigenvalues --    4.06849   4.10851   4.11344   4.14594   4.16245
 Alpha virt. eigenvalues --    4.17482   4.19918   4.20891   4.24093   4.24617
 Alpha virt. eigenvalues --    4.25475   4.27471   4.30122   4.30536   4.31551
 Alpha virt. eigenvalues --    4.32603   4.33394   4.35490   4.36509   4.37198
 Alpha virt. eigenvalues --    4.40044   4.41570   4.43564   4.44832   4.46495
 Alpha virt. eigenvalues --    4.48756   4.50008   4.54855   4.56735   4.57876
 Alpha virt. eigenvalues --    4.59143   4.61595   4.64871   4.67025   4.68647
 Alpha virt. eigenvalues --    4.71647   4.73746   4.76499   4.78385   4.82374
 Alpha virt. eigenvalues --    4.84236   4.85181   4.91267   4.94347   4.96648
 Alpha virt. eigenvalues --    4.99037   5.00407   5.02431   5.05968   5.11208
 Alpha virt. eigenvalues --    5.16469   5.18074   5.19071   5.21917   5.26704
 Alpha virt. eigenvalues --    5.29186   5.32225   5.34578   5.35434   5.36837
 Alpha virt. eigenvalues --    5.39286   5.44838   5.51181   5.53048   5.55061
 Alpha virt. eigenvalues --    5.61867   5.62483   5.70053   5.78654   5.81560
 Alpha virt. eigenvalues --    5.90200   6.22294   6.44572   6.58488   6.67744
 Alpha virt. eigenvalues --    6.74460   6.96901   7.19366   7.23778  10.91591
 Alpha virt. eigenvalues --   10.95870  11.46260  22.22289  22.50516  22.51564
 Alpha virt. eigenvalues --   22.57014  22.66367  22.74639  22.78648  22.88154
 Alpha virt. eigenvalues --   22.96386  23.03324  23.35561  23.42126  25.81327
 Alpha virt. eigenvalues --   32.27014  44.18035
          Condensed to atoms (all electrons):
               1          2          3          4          5          6
     1  C    6.494305   0.041104  -0.226380   0.401473  -0.013440  -0.004865
     2  C    0.041104   4.950803   0.670593  -0.113244   0.002196  -0.000098
     3  O   -0.226380   0.670593   8.128140  -0.012245   0.011051   0.000571
     4  C    0.401473  -0.113244  -0.012245   5.078429  -0.041306  -0.002186
     5  C   -0.013440   0.002196   0.011051  -0.041306   4.872672   0.420300
     6  H   -0.004865  -0.000098   0.000571  -0.002186   0.420300   0.501666
     7  H   -0.004516   0.001400   0.000697   0.005527   0.404517  -0.018406
     8  H    0.035289  -0.009951  -0.004418  -0.019243   0.411900  -0.020566
     9  N   -0.072841   0.013561   0.000060   0.091106   0.243167  -0.036366
    10  H   -0.013113  -0.001398  -0.000217   0.005583  -0.014053   0.005138
    11  H    0.011199  -0.000897   0.000015  -0.004604  -0.022987  -0.005329
    12  Cl  -0.081233  -0.003048  -0.000318   0.321329   0.003233   0.000119
    13  C   -0.076468  -0.045632  -0.024577   0.296034   0.021314   0.006951
    14  C   -0.022998   0.001706   0.020911  -0.098958   0.000419  -0.000586
    15  C    0.001860   0.001890  -0.002769   0.005343  -0.000001   0.000142
    16  C   -0.000479   0.000487   0.002261  -0.003473  -0.000087  -0.000193
    17  C    0.001146  -0.001138  -0.005621   0.006325   0.000839   0.001444
    18  C   -0.013254   0.013825   0.022429  -0.121438  -0.006564  -0.001333
    19  H    0.001261   0.000533  -0.002489   0.001676  -0.000054  -0.000003
    20  H   -0.000041   0.000004   0.000032  -0.000380  -0.000001   0.000001
    21  H    0.000002  -0.000002  -0.000002   0.000114   0.000001  -0.000001
    22  H    0.000013  -0.000001  -0.000047  -0.000391   0.000035   0.000086
    23  H    0.000649   0.000417   0.000640  -0.010734  -0.006095  -0.002496
    24  C    0.119027  -0.001833   0.007640  -0.036512   0.000114   0.000064
    25  H   -0.053134   0.001797  -0.000073   0.011788   0.000166  -0.000029
    26  H   -0.064052  -0.004250  -0.000059  -0.002286  -0.000092   0.000006
    27  H   -0.051293  -0.006950   0.000311   0.000546   0.000499  -0.000024
    28  C   -0.157364   0.354140  -0.075308   0.000542   0.001584   0.000002
    29  H    0.001847  -0.028761   0.001388   0.000207  -0.000048  -0.000020
    30  H    0.022747  -0.062253   0.004046  -0.000820  -0.000136  -0.000000
    31  H    0.023593  -0.060950   0.009039  -0.000268  -0.000198   0.000006
               7          8          9         10         11         12
     1  C   -0.004516   0.035289  -0.072841  -0.013113   0.011199  -0.081233
     2  C    0.001400  -0.009951   0.013561  -0.001398  -0.000897  -0.003048
     3  O    0.000697  -0.004418   0.000060  -0.000217   0.000015  -0.000318
     4  C    0.005527  -0.019243   0.091106   0.005583  -0.004604   0.321329
     5  C    0.404517   0.411900   0.243167  -0.014053  -0.022987   0.003233
     6  H   -0.018406  -0.020566  -0.036366   0.005138  -0.005329   0.000119
     7  H    0.498886  -0.021941  -0.020171  -0.005861  -0.003886  -0.000316
     8  H   -0.021941   0.505638  -0.034498  -0.003502   0.005483   0.000761
     9  N   -0.020171  -0.034498   6.505728   0.347749   0.348745  -0.068232
    10  H   -0.005861  -0.003502   0.347749   0.403522  -0.019437   0.003519
    11  H   -0.003886   0.005483   0.348745  -0.019437   0.408042   0.004622
    12  Cl  -0.000316   0.000761  -0.068232   0.003519   0.004622  17.019472
    13  C   -0.001134  -0.000842  -0.078457   0.006690  -0.007251  -0.075695
    14  C    0.000029   0.000109   0.005059  -0.000498   0.000856   0.017833
    15  C   -0.000007  -0.000020  -0.000371   0.000049  -0.000203  -0.002627
    16  C    0.000009   0.000007   0.000258  -0.000026   0.000174   0.001399
    17  C   -0.000073  -0.000063   0.001527   0.000142  -0.001258  -0.002446
    18  C    0.000805  -0.000794   0.043180  -0.000997  -0.004567   0.012836
    19  H    0.000002  -0.000003   0.000736  -0.000031  -0.000027   0.003076
    20  H   -0.000000  -0.000000   0.000003   0.000000  -0.000001  -0.000006
    21  H    0.000000  -0.000000  -0.000000  -0.000000   0.000000   0.000000
    22  H   -0.000003  -0.000002  -0.000007   0.000002  -0.000061  -0.000004
    23  H   -0.000075   0.000473   0.005764  -0.000210   0.002617  -0.000297
    24  C    0.000242  -0.002526   0.001481   0.000682  -0.000278  -0.018898
    25  H    0.000030   0.000074  -0.001757   0.000964  -0.000125   0.000003
    26  H   -0.000005   0.000073  -0.000825   0.000119   0.000030   0.004466
    27  H    0.000028  -0.000081   0.001406  -0.000217  -0.000021   0.001495
    28  C    0.000080  -0.001400   0.000837  -0.000186   0.000006  -0.000314
    29  H   -0.000023   0.000252   0.000080   0.000008  -0.000003  -0.000006
    30  H   -0.000002   0.000165  -0.000044   0.000011   0.000001   0.000010
    31  H   -0.000004   0.000113   0.000003   0.000003  -0.000000   0.000027
              13         14         15         16         17         18
     1  C   -0.076468  -0.022998   0.001860  -0.000479   0.001146  -0.013254
     2  C   -0.045632   0.001706   0.001890   0.000487  -0.001138   0.013825
     3  O   -0.024577   0.020911  -0.002769   0.002261  -0.005621   0.022429
     4  C    0.296034  -0.098958   0.005343  -0.003473   0.006325  -0.121438
     5  C    0.021314   0.000419  -0.000001  -0.000087   0.000839  -0.006564
     6  H    0.006951  -0.000586   0.000142  -0.000193   0.001444  -0.001333
     7  H   -0.001134   0.000029  -0.000007   0.000009  -0.000073   0.000805
     8  H   -0.000842   0.000109  -0.000020   0.000007  -0.000063  -0.000794
     9  N   -0.078457   0.005059  -0.000371   0.000258   0.001527   0.043180
    10  H    0.006690  -0.000498   0.000049  -0.000026   0.000142  -0.000997
    11  H   -0.007251   0.000856  -0.000203   0.000174  -0.001258  -0.004567
    12  Cl  -0.075695   0.017833  -0.002627   0.001399  -0.002446   0.012836
    13  C    5.479881   0.334919   0.065948  -0.127672   0.061208   0.025586
    14  C    0.334919   5.230765   0.370116   0.057510  -0.096132   0.077728
    15  C    0.065948   0.370116   5.057508   0.358307   0.047941  -0.133394
    16  C   -0.127672   0.057510   0.358307   5.043074   0.382339   0.084486
    17  C    0.061208  -0.096132   0.047941   0.382339   5.027515   0.338689
    18  C    0.025586   0.077728  -0.133394   0.084486   0.338689   5.496338
    19  H   -0.080363   0.460919  -0.056183   0.012205  -0.004908   0.016307
    20  H    0.015653  -0.064184   0.462124  -0.061670   0.012706  -0.005093
    21  H   -0.003947   0.011366  -0.059292   0.457288  -0.060029   0.013644
    22  H    0.015089  -0.003974   0.011390  -0.057084   0.453220  -0.057856
    23  H   -0.090996   0.004744  -0.001246   0.006624  -0.004041   0.444257
    24  C    0.010356   0.002203  -0.000291   0.000049  -0.000058  -0.000359
    25  H    0.003057  -0.000309   0.000023  -0.000001   0.000006   0.000110
    26  H   -0.000082   0.000948  -0.000022  -0.000001  -0.000000  -0.000182
    27  H   -0.001325  -0.000023   0.000000   0.000000   0.000000  -0.000010
    28  C    0.000623  -0.000135  -0.000151   0.000126  -0.000156   0.000873
    29  H   -0.000469   0.000049   0.000004  -0.000001   0.000003  -0.000016
    30  H    0.000642  -0.000107   0.000004  -0.000005   0.000006  -0.000034
    31  H    0.000114  -0.000003   0.000044  -0.000020   0.000018  -0.000088
              19         20         21         22         23         24
     1  C    0.001261  -0.000041   0.000002   0.000013   0.000649   0.119027
     2  C    0.000533   0.000004  -0.000002  -0.000001   0.000417  -0.001833
     3  O   -0.002489   0.000032  -0.000002  -0.000047   0.000640   0.007640
     4  C    0.001676  -0.000380   0.000114  -0.000391  -0.010734  -0.036512
     5  C   -0.000054  -0.000001   0.000001   0.000035  -0.006095   0.000114
     6  H   -0.000003   0.000001  -0.000001   0.000086  -0.002496   0.000064
     7  H    0.000002  -0.000000   0.000000  -0.000003  -0.000075   0.000242
     8  H   -0.000003  -0.000000  -0.000000  -0.000002   0.000473  -0.002526
     9  N    0.000736   0.000003  -0.000000  -0.000007   0.005764   0.001481
    10  H   -0.000031   0.000000  -0.000000   0.000002  -0.000210   0.000682
    11  H   -0.000027  -0.000001   0.000000  -0.000061   0.002617  -0.000278
    12  Cl   0.003076  -0.000006   0.000000  -0.000004  -0.000297  -0.018898
    13  C   -0.080363   0.015653  -0.003947   0.015089  -0.090996   0.010356
    14  C    0.460919  -0.064184   0.011366  -0.003974   0.004744   0.002203
    15  C   -0.056183   0.462124  -0.059292   0.011390  -0.001246  -0.000291
    16  C    0.012205  -0.061670   0.457288  -0.057084   0.006624   0.000049
    17  C   -0.004908   0.012706  -0.060029   0.453220  -0.004041  -0.000058
    18  C    0.016307  -0.005093   0.013644  -0.057856   0.444257  -0.000359
    19  H    0.505063  -0.007272  -0.000050   0.000015  -0.000001  -0.000826
    20  H   -0.007272   0.512114  -0.006869  -0.000048   0.000039  -0.000003
    21  H   -0.000050  -0.006869   0.510293  -0.006712  -0.000136   0.000000
    22  H    0.000015  -0.000048  -0.006712   0.509111  -0.006475  -0.000000
    23  H   -0.000001   0.000039  -0.000136  -0.006475   0.516147  -0.000069
    24  C   -0.000826  -0.000003   0.000000  -0.000000  -0.000069   5.065171
    25  H   -0.000010  -0.000000   0.000000   0.000000  -0.000009   0.419034
    26  H    0.000027   0.000000  -0.000000   0.000000   0.000003   0.440188
    27  H    0.000048  -0.000000   0.000000   0.000000  -0.000002   0.419405
    28  C    0.000456  -0.000004   0.000000  -0.000001   0.000019  -0.002457
    29  H    0.000008  -0.000000  -0.000000   0.000000  -0.000001  -0.009976
    30  H    0.000024   0.000001  -0.000000   0.000000  -0.000001   0.000700
    31  H    0.000018   0.000002  -0.000000   0.000000  -0.000000  -0.000818
              25         26         27         28         29         30
     1  C   -0.053134  -0.064052  -0.051293  -0.157364   0.001847   0.022747
     2  C    0.001797  -0.004250  -0.006950   0.354140  -0.028761  -0.062253
     3  O   -0.000073  -0.000059   0.000311  -0.075308   0.001388   0.004046
     4  C    0.011788  -0.002286   0.000546   0.000542   0.000207  -0.000820
     5  C    0.000166  -0.000092   0.000499   0.001584  -0.000048  -0.000136
     6  H   -0.000029   0.000006  -0.000024   0.000002  -0.000020  -0.000000
     7  H    0.000030  -0.000005   0.000028   0.000080  -0.000023  -0.000002
     8  H    0.000074   0.000073  -0.000081  -0.001400   0.000252   0.000165
     9  N   -0.001757  -0.000825   0.001406   0.000837   0.000080  -0.000044
    10  H    0.000964   0.000119  -0.000217  -0.000186   0.000008   0.000011
    11  H   -0.000125   0.000030  -0.000021   0.000006  -0.000003   0.000001
    12  Cl   0.000003   0.004466   0.001495  -0.000314  -0.000006   0.000010
    13  C    0.003057  -0.000082  -0.001325   0.000623  -0.000469   0.000642
    14  C   -0.000309   0.000948  -0.000023  -0.000135   0.000049  -0.000107
    15  C    0.000023  -0.000022   0.000000  -0.000151   0.000004   0.000004
    16  C   -0.000001  -0.000001   0.000000   0.000126  -0.000001  -0.000005
    17  C    0.000006  -0.000000   0.000000  -0.000156   0.000003   0.000006
    18  C    0.000110  -0.000182  -0.000010   0.000873  -0.000016  -0.000034
    19  H   -0.000010   0.000027   0.000048   0.000456   0.000008   0.000024
    20  H   -0.000000   0.000000  -0.000000  -0.000004  -0.000000   0.000001
    21  H    0.000000  -0.000000   0.000000   0.000000  -0.000000  -0.000000
    22  H    0.000000   0.000000   0.000000  -0.000001   0.000000   0.000000
    23  H   -0.000009   0.000003  -0.000002   0.000019  -0.000001  -0.000001
    24  C    0.419034   0.440188   0.419405  -0.002457  -0.009976   0.000700
    25  H    0.533888  -0.025471  -0.019321   0.000346   0.000284   0.000360
    26  H   -0.025471   0.550710  -0.031611  -0.004996  -0.000155   0.001325
    27  H   -0.019321  -0.031611   0.556075   0.007562   0.001258  -0.007020
    28  C    0.000346  -0.004996   0.007562   5.078294   0.400639   0.399701
    29  H    0.000284  -0.000155   0.001258   0.400639   0.527645  -0.024736
    30  H    0.000360   0.001325  -0.007020   0.399701  -0.024736   0.546575
    31  H   -0.000024   0.000178   0.000283   0.406969  -0.014267  -0.016194
              31
     1  C    0.023593
     2  C   -0.060950
     3  O    0.009039
     4  C   -0.000268
     5  C   -0.000198
     6  H    0.000006
     7  H   -0.000004
     8  H    0.000113
     9  N    0.000003
    10  H    0.000003
    11  H   -0.000000
    12  Cl   0.000027
    13  C    0.000114
    14  C   -0.000003
    15  C    0.000044
    16  C   -0.000020
    17  C    0.000018
    18  C   -0.000088
    19  H    0.000018
    20  H    0.000002
    21  H   -0.000000
    22  H    0.000000
    23  H   -0.000000
    24  C   -0.000818
    25  H   -0.000024
    26  H    0.000178
    27  H    0.000283
    28  C    0.406969
    29  H   -0.014267
    30  H   -0.016194
    31  H    0.529872
 Mulliken charges:
               1
     1  C   -0.300042
     2  C    0.285949
     3  O   -0.525299
     4  C    0.242066
     5  C   -0.288945
     6  H    0.156008
     7  H    0.164173
     8  H    0.159512
     9  N   -0.296880
    10  H    0.285563
    11  H    0.289147
    12  Cl  -0.140759
    13  C    0.270843
    14  C   -0.310282
    15  C   -0.126116
    16  C   -0.155890
    17  C   -0.159151
    18  C   -0.245115
    19  H    0.149847
    20  H    0.142893
    21  H    0.144333
    22  H    0.143703
    23  H    0.140490
    24  C   -0.411451
    25  H    0.128334
    26  H    0.136016
    27  H    0.128982
    28  C   -0.410327
    29  H    0.144809
    30  H    0.135035
    31  H    0.122555
 Sum of Mulliken charges =  -0.00000
 Mulliken charges with hydrogens summed into heavy atoms:
               1
     1  C   -0.300042
     2  C    0.285949
     3  O   -0.525299
     4  C    0.242066
     5  C    0.190748
     9  N    0.277831
    12  Cl  -0.140759
    13  C    0.270843
    14  C   -0.160435
    15  C    0.016777
    16  C   -0.011557
    17  C   -0.015448
    18  C   -0.104625
    24  C   -0.018119
    28  C   -0.007928
 APT charges:
               1
     1  C    0.151804
     2  C    0.254481
     3  O   -0.397377
     4  C   -0.227440
     5  C   -1.058218
     6  H    0.220140
     7  H    0.748589
     8  H    0.226422
     9  N   -0.845859
    10  H    0.656631
    11  H    0.603912
    12  Cl   0.120616
    13  C   -0.138702
    14  C   -0.588912
    15  C   -0.553339
    16  C   -0.618489
    17  C   -0.655478
    18  C   -0.614115
    19  H    0.310416
    20  H    0.698341
    21  H    0.928576
    22  H    0.759797
    23  H    0.389672
    24  C   -1.564768
    25  H    0.346734
    26  H    0.428071
    27  H    0.524639
    28  C   -1.504305
    29  H    0.501220
    30  H    0.389500
    31  H    0.507440
 Sum of APT charges =  -0.00000
 APT charges with hydrogens summed into heavy atoms:
               1
     1  C    0.151804
     2  C    0.254481
     3  O   -0.397377
     4  C   -0.227440
     5  C    0.136933
     9  N    0.414684
    12  Cl   0.120616
    13  C   -0.138702
    14  C   -0.278496
    15  C    0.145002
    16  C    0.310087
    17  C    0.104319
    18  C   -0.224443
    24  C   -0.265323
    28  C   -0.106146
 Electronic spatial extent (au):  <R**2>=           3344.7490
 Charge=             -0.0000 electrons
 Dipole moment (field-independent basis, Debye):
    X=              1.4919    Y=             -6.3669    Z=              2.6373  Tot=              7.0511
 Quadrupole moment (field-independent basis, Debye-Ang):
   XX=            -85.8701   YY=            -96.1318   ZZ=            -93.1802
   XY=             -4.2474   XZ=              1.9067   YZ=            -17.8020
 Traceless Quadrupole moment (field-independent basis, Debye-Ang):
   XX=              5.8573   YY=             -4.4044   ZZ=             -1.4528
   XY=             -4.2474   XZ=              1.9067   YZ=            -17.8020
 Octapole moment (field-independent basis, Debye-Ang**2):
  XXX=            -10.0047  YYY=            -50.5547  ZZZ=             19.5849  XYY=             11.1393
  XXY=              4.6866  XXZ=             15.8448  XZZ=              4.6307  YZZ=            -18.2415
  YYZ=              4.3766  XYZ=              2.5448
 Hexadecapole moment (field-independent basis, Debye-Ang**3):
 XXXX=          -2234.6196 YYYY=          -1227.5272 ZZZZ=           -821.2836 XXXY=            -55.2826
 XXXZ=             -5.2894 YYYX=            -29.7297 YYYZ=            -65.8604 ZZZX=             15.0599
 ZZZY=            -45.9908 XXYY=           -582.6181 XXZZ=           -526.6743 YYZZ=           -333.8034
 XXYZ=            -35.8745 YYXZ=             19.0631 ZZXY=            -13.6864
 N-N= 1.155360956632D+03 E-N=-4.794666721493D+03  KE= 1.053473044030D+03
  Exact polarizability:   0.000   0.000   0.000   0.000   0.000   0.000
 Approx polarizability: 195.857  -4.303 194.992 -13.321 -11.012 181.477
   1 Symmetry operations used in ECPInt.
 ECPInt:  NShTT=   26796 NPrTT=   81798 LenC2=   25215 LenP2D=   56941.
 LDataN:  DoStor=T MaxTD1= 8 Len=  415
 D2PCM: PCM CHGder 2nd derivatives, FixD1E=F FixD2E=F DoIter=F DoCFld=F I1PDM=0
 Calling FoFJK, ICntrl=    100147 FMM=F ISym2X=0 I1Cent= 0 IOpClX= 0 NMat=1 NMatS=1 NMatT=0.
 ***** Axes restored to original set *****
 -------------------------------------------------------------------
 Center     Atomic                   Forces (Hartrees/Bohr)
 Number     Number              X              Y              Z
 -------------------------------------------------------------------
      1        6           0.001859007    0.001772518    0.000703546
      2        6           0.000403731   -0.001175677   -0.000940024
      3        8          -0.001272303   -0.000115259    0.000752961
      4        6          -0.001446977   -0.000185669    0.000715359
      5        6           0.000197382    0.000172232   -0.000144190
      6        1           0.000025910   -0.000116720    0.000164765
      7        1           0.000047001   -0.000103097   -0.000185044
      8        1          -0.000150939    0.000191776   -0.000038411
      9        7          -0.000541407    0.000247256    0.000113698
     10        1          -0.000085072    0.000055761    0.000055561
     11        1          -0.000685697    0.000315194   -0.000168462
     12       17          -0.000198755   -0.000585561   -0.000817139
     13        6          -0.000186662    0.000026440   -0.000120995
     14        6           0.000239237   -0.000091073   -0.000014775
     15        6          -0.000151543    0.000044061    0.000001716
     16        6           0.000046985    0.000017222   -0.000096545
     17        6           0.000012601   -0.000069037    0.000125103
     18        6           0.000261984    0.000215108    0.000067298
     19        1           0.000175005   -0.000053175   -0.000032119
     20        1           0.000020532   -0.000008640    0.000006079
     21        1           0.000012580   -0.000005393   -0.000003472
     22        1           0.000014666   -0.000008007   -0.000006418
     23        1           0.000662426   -0.000542211    0.000316829
     24        6           0.000288419    0.000371323   -0.000299501
     25        1           0.000280089   -0.000132117    0.000101632
     26        1           0.000001798   -0.000142581    0.000071171
     27        1          -0.000195924    0.000084569   -0.000019747
     28        6           0.000362195   -0.000279646   -0.000381668
     29        1           0.000015008    0.000136873    0.000003110
     30        1           0.000069270    0.000059928    0.000067941
     31        1          -0.000080546   -0.000096398    0.000001738
 -------------------------------------------------------------------
 Cartesian Forces:  Max     0.001859007 RMS     0.000448182
 FormGI is forming the generalized inverse of G from B-inverse, IUseBI=4.

 GradGradGradGradGradGradGradGradGradGradGradGradGradGradGradGradGradGrad
 Berny optimization.
 Internal  Forces:  Max     0.001893694 RMS     0.000464316
 Search for a saddle point.
 Step number   1 out of a maximum of   70
 All quantities printed in internal units (Hartrees-Bohrs-Radians)
 Swapping is turned off.
 Second derivative matrix not updated -- analytic derivatives used.
 ITU=  0
     Eigenvalues ---   -0.03777   0.00029   0.00055   0.00192   0.00208
     Eigenvalues ---    0.00889   0.01022   0.01257   0.01529   0.01771
     Eigenvalues ---    0.01795   0.01955   0.02252   0.02390   0.02495
     Eigenvalues ---    0.02570   0.02710   0.02899   0.02973   0.03777
     Eigenvalues ---    0.04101   0.04535   0.04762   0.04880   0.05407
     Eigenvalues ---    0.05510   0.05665   0.05822   0.05949   0.08709
     Eigenvalues ---    0.09341   0.10571   0.10938   0.11635   0.11746
     Eigenvalues ---    0.11847   0.11915   0.12350   0.12716   0.13114
     Eigenvalues ---    0.13206   0.13543   0.14291   0.14844   0.15204
     Eigenvalues ---    0.16498   0.17108   0.18010   0.18298   0.18869
     Eigenvalues ---    0.19267   0.19474   0.19670   0.20893   0.23664
     Eigenvalues ---    0.24359   0.26932   0.28129   0.30313   0.32132
     Eigenvalues ---    0.33090   0.33488   0.33808   0.34074   0.34402
     Eigenvalues ---    0.34467   0.34651   0.34852   0.35007   0.35333
     Eigenvalues ---    0.36226   0.36309   0.36490   0.36556   0.36626
     Eigenvalues ---    0.39032   0.42124   0.42689   0.44239   0.45011
     Eigenvalues ---    0.45121   0.45223   0.48292   0.48613   0.50448
     Eigenvalues ---    0.52178   0.72011
 Eigenvectors required to have negative eigenvalues:
                          R6        R2        D9        D6        R7
   1                    0.89779  -0.14255   0.12641   0.12404  -0.10347
                          D33       R1        D36       D32       D37
   1                    0.10077   0.09856  -0.09803   0.09596  -0.09323
 RFO step:  Lambda0=2.870281069D-05 Lambda=-4.42481261D-04.
 Linear search not attempted -- option 19 set.
 Maximum step size (   0.050) exceeded in Quadratic search.
    -- Step size scaled by   0.774
 Iteration  1 RMS(Cart)=  0.05079560 RMS(Int)=  0.00186296
 Iteration  2 RMS(Cart)=  0.00205051 RMS(Int)=  0.00002239
 Iteration  3 RMS(Cart)=  0.00000460 RMS(Int)=  0.00002211
 Iteration  4 RMS(Cart)=  0.00000000 RMS(Int)=  0.00002211
 Variable       Old X    -DE/DX   Delta X   Delta X   Delta X     New X
                                 (Linear)    (Quad)   (Total)
    R1        2.70641  -0.00152   0.00000  -0.00207  -0.00207   2.70434
    R2        2.65241   0.00163   0.00000   0.00041   0.00041   2.65282
    R3        2.85859   0.00033   0.00000  -0.00019  -0.00019   2.85840
    R4        2.34301   0.00135   0.00000   0.00095   0.00095   2.34397
    R5        2.87372   0.00022   0.00000   0.00101   0.00101   2.87473
    R6        3.52974  -0.00083   0.00000   0.01206   0.01206   3.54180
    R7        3.44137   0.00099   0.00000   0.00277   0.00277   3.44414
    R8        2.84971  -0.00117   0.00000  -0.00261  -0.00261   2.84711
    R9        2.05305  -0.00002   0.00000  -0.00005  -0.00005   2.05300
   R10        2.05803  -0.00005   0.00000  -0.00016  -0.00016   2.05787
   R11        2.05723   0.00004   0.00000   0.00172   0.00172   2.05895
   R12        2.76347  -0.00007   0.00000  -0.00253  -0.00253   2.76093
   R13        1.91727  -0.00011   0.00000  -0.00084  -0.00084   1.91643
   R14        1.91816   0.00025   0.00000  -0.00032  -0.00032   1.91784
   R15        2.63840  -0.00037   0.00000  -0.00044  -0.00044   2.63796
   R16        2.62247  -0.00049   0.00000  -0.00063  -0.00063   2.62184
   R17        2.61046   0.00012   0.00000   0.00020   0.00020   2.61066
   R18        2.04479   0.00012   0.00000   0.00044   0.00044   2.04523
   R19        2.62560   0.00022   0.00000   0.00015   0.00015   2.62575
   R20        2.04604  -0.00002   0.00000  -0.00004  -0.00004   2.04599
   R21        2.61399   0.00029   0.00000   0.00035   0.00035   2.61434
   R22        2.04556  -0.00001   0.00000  -0.00002  -0.00002   2.04555
   R23        2.62596  -0.00009   0.00000  -0.00015  -0.00015   2.62581
   R24        2.04574  -0.00001   0.00000  -0.00002  -0.00002   2.04571
   R25        2.03868   0.00075   0.00000   0.00061   0.00061   2.03929
   R26        2.05832   0.00015   0.00000   0.00200   0.00200   2.06033
   R27        2.07060  -0.00011   0.00000   0.00002   0.00002   2.07062
   R28        2.06175  -0.00014   0.00000  -0.00252  -0.00252   2.05923
   R29        2.06624  -0.00002   0.00000  -0.00008  -0.00008   2.06616
   R30        2.06144  -0.00004   0.00000  -0.00044  -0.00044   2.06100
   R31        2.05683  -0.00007   0.00000   0.00008   0.00008   2.05691
    A1        2.09333  -0.00188   0.00000  -0.00217  -0.00230   2.09103
    A2        2.08197   0.00026   0.00000   0.00733   0.00720   2.08918
    A3        2.10376   0.00163   0.00000  -0.00264  -0.00277   2.10098
    A4        2.19281  -0.00064   0.00000  -0.00258  -0.00258   2.19023
    A5        2.04012  -0.00014   0.00000   0.00232   0.00232   2.04244
    A6        2.05017   0.00078   0.00000   0.00031   0.00031   2.05048
    A7        1.89267   0.00106   0.00000   0.00242   0.00242   1.89509
    A8        2.00489  -0.00003   0.00000  -0.00447  -0.00447   2.00042
    A9        2.12050   0.00034   0.00000   0.00339   0.00339   2.12389
   A10        1.65670   0.00031   0.00000  -0.00085  -0.00085   1.65585
   A11        1.86572  -0.00189   0.00000  -0.00572  -0.00572   1.86000
   A12        1.86229   0.00005   0.00000   0.00386   0.00386   1.86616
   A13        1.91970   0.00002   0.00000  -0.00241  -0.00241   1.91729
   A14        1.90079  -0.00008   0.00000   0.00112   0.00112   1.90192
   A15        1.91289   0.00019   0.00000   0.00313   0.00313   1.91602
   A16        1.91193   0.00013   0.00000   0.00147   0.00147   1.91340
   A17        1.93541  -0.00032   0.00000   0.00029   0.00029   1.93570
   A18        1.88245   0.00007   0.00000  -0.00359  -0.00359   1.87885
   A19        1.96705   0.00015   0.00000  -0.00006  -0.00005   1.96699
   A20        1.75797  -0.00003   0.00000   0.00015   0.00016   1.75813
   A21        1.97491  -0.00034   0.00000  -0.00549  -0.00548   1.96943
   A22        1.92401  -0.00013   0.00000  -0.00009  -0.00009   1.92392
   A23        1.96679   0.00017   0.00000   0.00349   0.00349   1.97028
   A24        1.85795   0.00016   0.00000   0.00183   0.00183   1.85978
   A25        2.02870   0.00098   0.00000  -0.00040  -0.00042   2.02829
   A26        2.18749  -0.00180   0.00000  -0.00074  -0.00076   2.18673
   A27        2.06381   0.00082   0.00000   0.00189   0.00189   2.06570
   A28        2.11307  -0.00047   0.00000  -0.00107  -0.00106   2.11201
   A29        2.07700   0.00009   0.00000   0.00012   0.00011   2.07711
   A30        2.09307   0.00038   0.00000   0.00095   0.00094   2.09401
   A31        2.09825  -0.00008   0.00000  -0.00033  -0.00033   2.09792
   A32        2.08719   0.00002   0.00000   0.00032   0.00032   2.08751
   A33        2.09775   0.00006   0.00000   0.00001   0.00001   2.09776
   A34        2.08025   0.00017   0.00000   0.00080   0.00080   2.08105
   A35        2.10178  -0.00008   0.00000  -0.00044  -0.00044   2.10134
   A36        2.10115  -0.00008   0.00000  -0.00036  -0.00036   2.10079
   A37        2.10323  -0.00020   0.00000  -0.00041  -0.00040   2.10283
   A38        2.09863   0.00011   0.00000  -0.00000  -0.00000   2.09863
   A39        2.08132   0.00009   0.00000   0.00041   0.00041   2.08172
   A40        2.10739  -0.00024   0.00000  -0.00084  -0.00083   2.10656
   A41        2.12663  -0.00041   0.00000  -0.00137  -0.00137   2.12526
   A42        2.04907   0.00065   0.00000   0.00215   0.00214   2.05121
   A43        1.94793   0.00031   0.00000   0.00228   0.00228   1.95021
   A44        1.96789   0.00010   0.00000   0.00303   0.00303   1.97091
   A45        1.95068  -0.00031   0.00000  -0.00473  -0.00473   1.94595
   A46        1.86007  -0.00009   0.00000   0.00004   0.00003   1.86010
   A47        1.86099  -0.00007   0.00000  -0.00380  -0.00381   1.85718
   A48        1.86996   0.00005   0.00000   0.00305   0.00305   1.87301
[...]
 174,-0.00005331,-0.00000372,-0.00024202,-0.00001551,-0.00001239,0.0000
 2402,-0.00001170,0.00004327,-0.00000855,0.00000865,0.00000415,-0.00001
 299,0.00001619,0.00000611,0.00000075,-0.00001602,-0.00000953,0.0000247
 4,-0.00000477,0.00000695,-0.00004304,-0.00000240,0.00000087,0.00000160
 ,0.00000141,-0.00000148,-0.00000431,0.00000124,-0.00000009,-0.00000012
 ,0.00000774,-0.00000677,-0.00001050,-0.00511569,0.03863999,-0.05081518
 ,0.00172652,-0.04131971,0.05384910,-0.00658301,-0.00423944,0.02923738,
 -0.00031973,-0.00286658,0.00014111,-0.00145553,0.00198967,0.00024334,0
 .00169248,0.00593268,0.00151463,-0.00003586,-0.00030077,-0.00022164,-0
 .00000116,0.00001544,0.00000776,0.00002194,0.00002423,0.00008095,-0.00
 006153,0.00012760,-0.00010868,0.00013491,-0.00164107,0.00114481,-0.000
 08919,-0.00003007,0.00012529,0.00008800,-0.00008863,0.00009151,-0.0000
 9324,-0.00170777,-0.00093449,0.00050950,0.00011390,-0.00106424,-0.0003
 5323,-0.00003650,0.00001710,0.00002472,0.00012971,-0.00000359,-0.00006
 317,0.00002386,0.00001425,0.00000377,0.00004859,-0.00000633,0.00003595
 ,-0.00004580,-0.00000287,-0.00000808,-0.00004808,-0.00002725,-0.000035
 18,0.00002397,-0.00000801,-0.00002114,-0.00001004,-0.00001110,-0.00002
 022,-0.00000207,0.00000889,0.00000694,-0.00004333,-0.00000468,-0.04406
 010,-0.00215224,0.00302840,-0.00051267,0.00026330,-0.00384967,0.050578
 39,0.00216424,0.00307794,-0.01097291,0.00051070,-0.00008146,-0.0012354
 9,0.00038088,-0.00063450,0.00037002,-0.00170564,-0.00216453,0.00045714
 ,0.00003591,0.00012238,-0.00004179,0.00000401,0.00000423,0.00001452,0.
 00000640,-0.00003116,-0.00003311,0.00001706,-0.00005340,0.00003605,0.0
 0038082,0.00060870,-0.00056490,0.00028586,0.00028172,-0.00020016,-0.00
 005453,0.00023273,-0.00019385,0.00026982,0.00072860,0.00030693,-0.0001
 4643,0.00001247,0.00002679,0.00000033,0.00005837,-0.00002559,-0.000003
 13,-0.00002632,0.00000857,0.00001310,-0.00000383,-0.00000234,0.0000113
 5,0.00000356,-0.00000081,0.00000979,-0.00003175,0.00002070,-0.00001627
 ,0.00000898,0.00002304,0.00000766,-0.00000587,0.00000201,0.00000347,-0
 .00000008,0.00000172,0.00000890,-0.00000080,-0.00000192,-0.00001362,0.
 00001683,-0.00000892,-0.00177515,-0.05288842,0.04160225,0.00046010,-0.
 00591972,0.03228962,-0.00156411,0.05305911,0.00852418,-0.00149127,-0.0
 0795282,0.00052257,0.00300382,0.00021749,0.00123166,-0.00158568,-0.000
 82473,-0.00185298,-0.00482011,-0.00006054,-0.00000874,0.00016487,0.000
 27262,-0.00000820,-0.00002687,-0.00002029,-0.00001799,-0.00001129,-0.0
 0008559,0.00006643,-0.00010536,0.00010978,0.00008303,0.00154739,-0.000
 89167,0.00003667,-0.00005414,-0.00007038,-0.00018061,0.00009817,-0.000
 17584,-0.00025509,0.00094884,0.00057612,-0.00025750,0.00015206,0.00015
 203,0.00036101,-0.00004439,0.00010072,-0.00000934,-0.00002238,-0.00006
 727,0.00008104,-0.00002311,-0.00001753,0.00002713,-0.00002452,-0.00001
 772,0.00008234,-0.00003275,0.00003985,0.00000680,0.00009377,-0.0001047
 6,0.00002407,-0.00001942,0.00001151,0.00002435,0.00000506,0.00000057,0
 .00002673,-0.00000290,-0.00001113,-0.00002279,0.00002282,0.00000476,-0
 .00140695,0.04393848,-0.29360880,-0.00072057,0.00103942,-0.00499431,-0
 .00569505,-0.04535196,0.32032483,-0.02015572,-0.01281693,-0.00810612,0
 .00060844,-0.00383035,-0.00088749,-0.00069902,0.00079351,0.00061885,-0
 .00380732,0.00366556,-0.00019881,-0.00004779,-0.00022606,-0.00004042,-
 0.00001481,-0.00000531,0.00000106,0.00001908,0.00002296,0.00004919,-0.
 00000239,0.00006241,-0.00007963,0.00018560,-0.00013297,0.00030286,-0.0
 0001900,0.00007686,0.00000195,0.00001059,0.00004347,0.00001800,0.00019
 969,0.00064449,0.00030914,-0.00047257,-0.00143472,0.00060713,-0.000053
 22,0.00000118,0.00008730,0.00002124,-0.00000032,-0.00000050,-0.0000908
 8,0.00000250,0.00002614,-0.00006536,0.00003246,0.00012761,-0.00037284,
 0.00023464,-0.00019223,0.00004862,-0.00001940,0.00002587,-0.00002472,0
 .00001864,-0.00001501,-0.00001992,0.00000455,-0.00000209,-0.00005916,0
 .00001668,0.00001398,0.00002799,-0.00003995,-0.00000266,-0.20792475,-0
 .10092140,-0.08694697,0.00467450,0.00249062,0.00318345,0.00017010,0.00
 043717,-0.00039684,0.22627870,0.00832969,0.00455279,0.00436706,0.00028
 356,0.00039583,-0.00008934,0.00003395,0.00019727,0.00020912,0.00161049
 ,-0.00133587,-0.00033865,-0.00004354,-0.00003440,-0.00001444,0.0000044
 0,0.00000581,0.00001625,-0.00000760,-0.00000522,0.00000868,-0.00000247
 ,-0.00000538,-0.00001161,-0.00029623,0.00024258,-0.00025857,0.00017971
 ,0.00022478,-0.00035931,-0.00002446,-0.00000776,0.00006015,-0.00135291
 ,-0.00046999,-0.00006896,0.00023057,0.00035803,-0.00029059,-0.00003151
 ,0.00001816,-0.00001588,0.00001742,0.00000744,0.00000787,-0.00001632,0
 .00000370,0.00000464,0.00001351,0.00000902,-0.00003824,0.00007780,-0.0
 0003687,0.00000498,-0.00000159,-0.00001267,0.00000376,-0.00000234,0.00
 000150,-0.00000180,-0.00000242,-0.00000145,-0.00000093,0.00000684,-0.0
 0000335,0.00000035,0.00000338,0.00000118,-0.00000527,-0.10335468,-0.10
 943430,-0.05493902,-0.02401977,-0.01372233,-0.01352004,0.00559621,0.00
 303068,0.00301373,0.11089682,0.12107320,0.01216552,0.00800643,0.005369
 03,-0.00015688,0.00006186,0.00089922,0.00008435,0.00029443,-0.00013595
 ,0.00241305,-0.00108664,-0.00062485,-0.00001310,0.00000121,0.00004603,
 -0.00001579,-0.00001685,0.00000060,-0.00000374,-0.00000322,-0.00000967
 ,-0.00000249,-0.00002011,-0.00000645,0.00008513,-0.00011335,0.00019141
 ,-0.00003622,-0.00005913,0.00007515,0.00000088,0.00000536,-0.00004133,
 -0.00022272,-0.00036008,0.00014535,0.00042400,0.00071263,-0.00021983,0
 .00001173,-0.00000751,-0.00003196,-0.00001682,0.00000430,-0.00000614,0
 .00003585,0.00000210,-0.00000896,0.00001904,-0.00002176,-0.00006299,0.
 00017287,-0.00011568,0.00005426,-0.00002070,0.00000122,-0.00000456,0.0
 0000613,-0.00000448,0.00000543,0.00000536,-0.00000145,0.00000090,0.000
 02153,-0.00000635,-0.00000478,-0.00000306,0.00001911,0.00000521,-0.088
 56586,-0.05490097,-0.09358431,0.00526226,0.00269486,0.00177714,-0.0239
 4842,-0.01679775,-0.01286301,0.09198400,0.06322224,0.09956259,0.002486
 32,-0.01032014,0.00224276,-0.11698264,-0.04162821,0.00099376,-0.040875
 85,-0.01919463,0.03009364,0.00371610,0.00476243,0.00068935,-0.00013883
 ,-0.00033122,-0.00044372,0.00006664,0.00004447,-0.00000702,0.00005748,
 0.00005275,0.00012138,-0.00006816,0.00011514,-0.00002699,-0.00086358,-
 0.00283220,0.00193880,-0.00009819,0.00007734,0.00005121,0.00031223,-0.
 00030312,0.00047556,0.00056381,0.00104304,0.00066498,0.00010511,0.0001
 9440,0.00037088,-0.00000358,-0.00016267,0.00006027,-0.00006362,0.00005
 368,0.00005643,-0.00006652,0.00011229,-0.00007111,0.00012417,-0.000111
 51,0.00000747,-0.00030240,-0.00012822,-0.00017098,0.00007298,-0.000023
 24,-0.00002307,-0.00001898,0.00002242,-0.00000921,-0.00002063,0.000002
 90,-0.00001012,-0.00003093,0.00000767,0.00001623,0.00006314,-0.0000016
 7,-0.00000437,-0.00081545,0.00103115,-0.00059979,-0.00001267,-0.000023
 96,-0.00005739,0.00026524,0.00038803,-0.00011459,0.00078260,0.00134460
 ,0.00057217,0.50424601,-0.02292575,-0.01705994,0.00094521,-0.04776375,
 -0.14541186,0.00368201,-0.00168967,0.01706640,0.00175873,0.00072968,-0
 .00319950,-0.00209704,0.00008705,0.00014522,0.00011449,0.00000798,-0.0
 0000920,0.00000039,-0.00001432,-0.00000744,0.00004317,-0.00003604,-0.0
 0005355,-0.00005183,0.00002868,0.00054609,-0.00044183,0.00000984,0.000
 08592,-0.00010415,-0.00002815,0.00001777,-0.00002475,-0.00094347,-0.00
 162381,-0.00080264,0.00044212,0.00006643,-0.00012050,-0.00002328,0.000
 03864,0.00005539,0.00003411,0.00000300,-0.00002688,-0.00004210,-0.0000
 1699,0.00002593,-0.00003053,0.00004686,0.00001016,-0.00001656,0.000038
 61,-0.00001611,0.00002486,-0.00001189,0.00000481,-0.00001448,0.0000122
 7,-0.00000364,-0.00000859,0.00000071,0.00000009,-0.00001751,-0.0000043
 8,0.00000203,0.00000787,-0.00000147,0.00001373,-0.00005698,-0.00374978
 ,0.00125892,-0.00081834,-0.00052114,-0.00027989,0.00013369,0.00048117,
 -0.00005475,-0.00059861,-0.00244801,-0.00107048,-0.05978266,0.53860569
 ,-0.00398924,-0.00983646,0.00998298,0.00361452,0.00861064,-0.08400702,
 0.03938343,0.00908022,0.00207682,0.00150057,-0.00196847,0.00162763,-0.
 00013057,-0.00038922,-0.00032796,-0.00000190,0.00005338,0.00003465,-0.
 00000096,0.00004195,0.00006799,0.00000723,0.00016012,0.00000334,-0.000
 79820,-0.00184366,0.00138435,-0.00010059,0.00010205,-0.00001664,0.0002
 3527,-0.00021531,0.00034199,-0.00005081,0.00091340,-0.00007055,-0.0000
 6732,-0.00026202,0.00007951,0.00027942,0.00009679,0.00015392,-0.000265
 82,0.00014566,0.00018539,0.00004272,0.00003320,-0.00018150,0.00003104,
 -0.00009508,0.00003339,-0.00013103,0.00024752,0.00016025,0.00003498,-0
 .00005358,-0.00001016,-0.00000254,-0.00000576,0.00000084,0.00000043,-0
 .00000342,-0.00000857,-0.00000158,0.00001140,0.00000352,0.00002823,-0.
 00003267,-0.00004773,-0.00075254,-0.00106686,-0.00190316,-0.00003730,-
 0.00002449,-0.00029944,0.00025330,-0.00036115,0.00000911,-0.00021280,0
 .00022935,0.00034150,-0.01718074,0.02876359,0.55634075,-0.00084112,-0.
 00168248,0.00142304,-0.01791821,0.00864202,-0.01389862,-0.00038506,-0.
 00358000,0.00318130,0.00089019,0.00108575,-0.00011357,-0.00006191,-0.0
 0022614,-0.00012738,0.00000588,0.00001455,0.00000224,0.00002114,0.0000
 1478,0.00003468,-0.00003562,0.00001995,-0.00001451,-0.00020514,-0.0007
 2022,0.00062420,-0.00003268,0.00002947,0.00001467,0.00008262,-0.000057
 56,0.00012617,0.00007049,0.00007549,-0.00004092,0.00006717,-0.00005168
 ,0.00014493,-0.00003565,-0.00002677,-0.00001256,-0.00000688,0.00000146
 ,0.00001455,-0.00002915,0.00002367,-0.00000476,0.00000554,-0.00002449,
 0.00000801,-0.00008535,0.00000198,-0.00004958,0.00001835,-0.00001730,0
 .00003056,-0.00000825,0.00000730,-0.00000486,-0.00000876,0.00000155,-0
 .00000090,-0.00001280,0.00000454,0.00000673,0.00002085,-0.00000721,-0.
 00000198,0.00030103,0.00010776,0.00009122,0.00020963,0.00005548,0.0001
 2393,0.00011434,0.00004122,-0.00004194,0.00033248,-0.00006911,-0.00015
 944,-0.21135926,0.04582850,-0.12570889,0.22762171,-0.00034859,-0.00294
 609,0.00101528,-0.01609827,0.00760945,-0.01544861,0.00055828,-0.001173
 19,0.00194155,0.00133011,0.00139321,0.00003236,-0.00007188,-0.00017843
 ,-0.00019756,0.00000477,0.00002259,0.00001466,0.00002529,0.00004826,0.
 00005704,0.00001412,0.00005182,-0.00001877,-0.00036478,-0.00114911,0.0
 0082423,-0.00004909,0.00003849,0.00002046,0.00014237,-0.00012378,0.000
 20260,0.00008292,0.00014146,0.00006934,0.00004737,-0.00006845,0.000069
 92,-0.00004159,-0.00001023,0.00000981,-0.00002474,0.00001345,0.0000135
 5,-0.00001923,0.00001768,-0.00001323,0.00000304,-0.00001732,0.00000570
 ,-0.00005593,0.00000535,-0.00001022,0.00001188,-0.00002140,0.00001894,
 -0.00000843,0.00000640,-0.00000315,-0.00000694,0.00000108,-0.00000107,
 -0.00000894,0.00000503,0.00000584,0.00001882,-0.00000984,-0.00000748,-
 0.00062803,-0.00048338,-0.00048259,-0.00003840,-0.00004365,-0.00010068
 ,0.00028346,0.00021959,0.00012903,0.00031521,-0.00111594,-0.00084272,0
 .04154774,-0.05517824,0.03125675,-0.04840700,0.05823194,-0.00089732,-0
 .00070064,0.00031302,0.00601729,-0.00272220,0.00350080,0.00034652,0.00
 120389,-0.00185981,0.00027498,0.00018875,-0.00021118,-0.00000599,-0.00
 008209,-0.00000784,-0.00001514,-0.00000193,0.00000590,0.00000555,0.000
 00700,0.00000165,-0.00001162,-0.00002759,0.00000181,-0.00001800,-0.000
 06696,0.00012591,-0.00000967,-0.00000707,0.00001604,0.00000135,0.00000
 509,0.00000860,0.00000225,-0.00011526,-0.00004499,0.00002344,-0.000001
 70,-0.00001179,-0.00000133,0.00000150,0.00000392,0.00000813,-0.0000004
 6,-0.00001252,0.00000025,-0.00000640,0.00000761,-0.00000725,0.00000919
 ,-0.00000172,0.00001384,-0.00000344,0.00000643,0.00000733,0.00000455,-
 0.00000313,-0.00000002,0.00000055,0.00000065,0.00000044,0.00000060,0.0
 0000053,-0.00000034,-0.00000059,-0.00000061,0.00000119,0.00000102,0.00
 000233,-0.00065702,0.00051967,-0.00008834,0.00022365,0.00024909,0.0001
 1876,-0.00002511,0.00009634,-0.00000067,0.00045444,-0.00062020,-0.0001
 2649,-0.12181126,0.03266983,-0.13026931,0.13372314,-0.03602756,0.14073
 675,-0.00062175,-0.00025080,-0.00097443,-0.00441047,0.00587294,0.02288
 848,-0.00691789,-0.00399968,0.00073218,0.00029797,0.00082729,-0.000426
 17,0.00001411,-0.00003255,0.00000390,0.00000252,-0.00000633,-0.0000061
 6,0.00000890,-0.00000687,0.00001475,-0.00001663,0.00000799,-0.00003822
 ,0.00004360,-0.00002931,0.00006829,-0.00000165,-0.00000050,0.00001411,
 0.00000687,0.00001304,-0.00000408,-0.00003577,-0.00029824,-0.00006898,
 0.00010066,0.00003845,0.00002535,-0.00010085,-0.00003750,-0.00002124,0
 .00006322,-0.00002753,-0.00003700,-0.00003539,0.00000897,0.00003996,-0
 .00000073,0.00000802,-0.00000857,-0.00002359,-0.00005669,-0.00007071,0
 .00001481,0.00000336,0.00000996,-0.00000662,0.00000789,-0.00000371,-0.
 00000623,0.00000168,0.00000045,-0.00000900,-0.00000036,0.00000336,0.00
 000793,0.00000372,0.00000924,0.00038535,0.00007935,-0.00016352,-0.0000
 1224,-0.00001875,-0.00004315,0.00006923,-0.00013676,-0.00006320,-0.000
 03162,0.00046451,-0.00033108,-0.06660500,0.00049448,0.08086450,0.00851
 301,-0.00052179,-0.02499482,0.07271907,-0.00182570,-0.00174727,-0.0011
 7314,0.00025256,0.00431448,0.02128393,-0.00495198,-0.00058601,-0.00001
 225,0.00091009,0.00148828,-0.00058280,0.00001611,-0.00004432,-0.000048
 87,0.00000107,0.00000299,-0.00000073,0.00000506,0.00000374,0.00002453,
 -0.00001745,0.00002409,-0.00004134,-0.00008069,-0.00029823,0.00019538,
 -0.00001572,-0.00000149,0.00001967,0.00004119,-0.00003423,0.00005702,0
 .00001607,-0.00039656,-0.00008230,0.00011089,0.00005024,0.00003598,-0.
 00008711,-0.00002538,-0.00001279,0.00003688,-0.00002214,-0.00003741,-0
 .00001996,0.00000323,0.00002814,-0.00000870,0.00000546,-0.00000149,-0.
 00000951,-0.00003852,-0.00003917,0.00000495,-0.00000472,0.00001468,-0.
 00000539,0.00000725,-0.00000154,-0.00000537,0.00000192,0.00000103,-0.0
 0000726,0.00000104,0.00000344,0.00000899,0.00000079,0.00000684,0.00016
 684,-0.00108326,0.00076998,0.00002722,0.00016050,-0.00009299,0.0000482
 8,-0.00008139,-0.00038165,0.00047873,-0.00166902,0.00034800,0.00114251
 ,-0.05047936,-0.00650921,-0.00203882,-0.00056429,0.00655969,-0.0011458
 4,0.04910304,0.00074774,-0.00005099,0.00066517,-0.00095863,-0.00323719
 ,-0.00317550,0.00138419,0.00174189,-0.00001873,-0.00008356,-0.00014725
 ,0.00014847,-0.00003596,-0.00001799,-0.00000455,-0.00001112,-0.0000024
 7,0.00000797,0.00000341,0.00001446,-0.00000810,0.00002879,-0.00001633,
 0.00001223,-0.00002788,0.00004942,-0.00002520,0.00002666,0.00001857,-0
 .00003211,-0.00001432,0.00000260,0.00000767,0.00000423,0.00013228,0.00
 005329,-0.00003764,-0.00003120,-0.00001374,0.00009093,0.00003860,0.000
 04811,-0.00004134,0.00003087,0.00001440,0.00002399,-0.00000292,-0.0000
 3008,0.00001345,-0.00000892,0.00001077,-0.00001239,0.00002466,0.000052
 23,0.00001608,0.00000458,-0.00003922,0.00000377,-0.00000365,0.00000359
 ,0.00000467,-0.00000193,-0.00000246,0.00000490,0.00000055,-0.00000245,
 -0.00000469,0.00000025,-0.00000283,0.00043514,-0.00073667,0.00115554,-
 0.00037804,-0.00030224,-0.00002686,-0.00002639,0.00036471,-0.00019508,
 -0.00059536,-0.00036657,-0.00044390,0.07932762,-0.00454711,-0.29248778
 ,0.00622238,-0.00063564,-0.01697480,-0.08649838,0.00725564,0.31549856,
 -0.00344540,-0.00138288,0.00106015,0.00549525,-0.02604529,-0.00531635,
 0.00182308,0.00135587,-0.00153030,0.00019585,-0.00060573,-0.00039912,0
 .00002054,-0.00003304,0.00001567,-0.00000089,0.00000286,0.00000380,-0.
 00000396,-0.00000355,0.00001438,-0.00001915,0.00000217,-0.00001049,-0.
 00005057,-0.00004472,0.00006418,-0.00001948,0.00000861,-0.00000401,0.0
 0001394,-0.00001215,0.00002180,-0.00014370,-0.00033248,-0.00023505,0.0
 0006194,-0.00005013,-0.00004138,-0.00000040,0.00001854,0.00002025,-0.0
 0000635,0.00000624,0.00000120,-0.00000239,-0.00000299,0.00000137,-0.00
 001531,0.00000881,0.00000353,0.00001064,0.00002569,0.00000298,0.000003
 61,-0.00000367,0.00000993,-0.00000339,0.00000202,-0.00000116,-0.000001
 89,0.00000003,0.00000043,-0.00000301,0.00000054,0.00000123,0.00000386,
 -0.00000189,0.00000065,-0.00079656,0.00052184,-0.00000489,0.00028172,0
 .00016988,0.00008056,-0.00000244,-0.00002119,-0.00004563,0.00050145,0.
 00013150,0.00023242,-0.07453553,0.08698193,0.02315716,-0.00724858,0.02
 230822,0.00735109,-0.00341181,0.00695209,0.00038775,0.08129894,-0.0040
 8985,-0.00213727,0.00079410,0.00973064,-0.02195434,-0.00654962,0.00183
 462,0.00504767,-0.00055862,0.00092295,0.00061399,-0.00095347,-0.000004
 73,-0.00013223,-0.00007406,-0.00001542,0.00000558,0.00001674,0.0000034
 2,0.00001643,0.00004790,-0.00000277,0.00005176,-0.00007937,-0.00009564
 ,-0.00050714,0.00045798,-0.00002207,0.00005485,-0.00001786,0.00005991,
 -0.00004029,0.00008312,-0.00030363,-0.00062514,-0.00028623,0.00017351,
 -0.00012586,-0.00000465,-0.00007216,0.00002921,0.00001416,-0.00000318,
 0.00001190,-0.00000308,-0.00002632,0.00000242,0.00000759,-0.00002577,0
 .00000882,0.00001539,-0.00004608,0.00003977,-0.00000521,0.00001397,-0.
 00002469,0.00002560,-0.00001263,0.00000861,-0.00000479,-0.00000875,0.0
 0000062,0.00000022,-0.00001420,0.00000319,0.00000533,0.00001550,-0.000
 00929,0.00000055,-0.00041581,0.00028401,0.00050885,-0.00003985,-0.0000
 2155,-0.00007979,0.00002192,-0.00002384,-0.00010493,-0.00021244,0.0001
 8060,0.00005477,0.08290087,-0.27737824,-0.05707867,0.00095329,-0.00472
 244,-0.00113267,-0.00126218,0.00190920,0.00042999,-0.08995716,0.299433
 67,0.00095245,0.00033160,0.00059238,-0.00255497,0.00423061,-0.00059426
 ,0.00020727,0.00069197,0.00005544,-0.00011885,-0.00030409,0.00033421,-
 0.00000810,-0.00000186,0.00000304,-0.00000071,-0.00000101,0.00000315,0
 .00000372,0.00000834,0.00000334,0.00000009,-0.00002116,0.00002251,-0.0
 0006248,-0.00008702,0.00005461,0.00000680,0.00001143,-0.00001363,0.000
 00239,-0.00001109,0.00002131,0.00005155,0.00026624,0.00006450,-0.00000
 751,0.00000355,0.00001600,-0.00000799,0.00000533,-0.00001187,0.0000090
 5,-0.00000365,-0.00000221,-0.00000010,-0.00000288,0.00000399,0.0000002
 1,0.00000401,-0.00000257,0.00000096,-0.00000814,0.00000716,0.00000118,
 0.00000521,0.00000122,0.00000021,-0.00000116,-0.00000030,0.00000083,0.
 00000007,0.00000041,0.00000151,-0.00000021,-0.00000085,-0.00000052,-0.
 00000035,-0.00000173,0.00028847,-0.00026376,0.00017320,-0.00015293,-0.
 00009517,0.00009681,0.00002881,0.00017225,0.00014275,-0.00013405,-0.00
 020878,-0.00029866,0.02284785,-0.05970691,-0.06319812,-0.00559187,0.01
 810221,0.00476250,0.00907888,-0.02758628,-0.00419461,-0.02484215,0.064
 47071,0.06196030\\0.00000012,-0.00000077,-0.00000347,0.00000047,-0.000
 00019,-0.00000362,0.00000274,-0.00000127,-0.00000221,-0.00000212,-0.00
 000014,-0.00000187,0.00000458,0.00000088,-0.00000078,0.00000456,0.0000
 0257,0.00000072,0.00000735,0.00000262,-0.00000146,0.00000334,0.0000023
 1,-0.00000180,0.00000231,0.00000188,0.00000129,0.00000063,-0.00000091,
 0.00000047,0.00000060,0.00000161,0.00000213,-0.00000426,-0.00000165,0.
 00000185,-0.00000074,-0.00000007,0.00000227,-0.00000310,-0.00000132,0.
 00000282,-0.00000320,-0.00000107,0.00000547,-0.00000073,-0.00000035,0.
 00000708,0.00000176,0.00000002,0.00000771,0.00000189,0.00000203,0.0000
 0605,-0.00000455,-0.00000209,0.00000110,-0.00000445,-0.00000202,0.0000
 0507,-0.00000086,-0.00000055,0.00000911,0.00000287,0.00000103,0.000009
 06,0.00000312,0.00000045,0.00000520,-0.00000081,-0.00000030,-0.0000032
 4,-0.00000088,0.00000047,-0.00000432,-0.00000509,-0.00000169,-0.000005
 74,-0.00000165,-0.00000205,-0.00000797,-0.00000075,-0.00000001,-0.0000
 0736,0.00000073,0.00000068,-0.00000839,-0.00000304,-0.00000029,-0.0000
 0779,-0.00000084,0.00000020,-0.00000735\\\@


 OF ALL THE WONDERS OF THE UNIVERSE, THE GREATEST IS MAN.

                                    -- ARISTOTLE
 Job cpu time:       0 days 18 hours 52 minutes  9.0 seconds.
 Elapsed time:       0 days  1 hours 10 minutes 49.3 seconds.
 File lengths (MBytes):  RWF=    993 Int=      0 D2E=      0 Chk=     40 Scr=      1
 Normal termination of Gaussian 16 at Fri Feb 26 13:29:35 2021.
