 Entering Gaussian System, Link 0=g16
 Initial command:
 /apps/gaussian/16/A.03/g16/l1.exe "/beegfs/scratch/user/q/tla25/Gau-64879.inp" -scrdir="/beegfs/scratch/user/q/tla25/"
 Entering Link 1 = /apps/gaussian/16/A.03/g16/l1.exe PID=     64880.
  
 Copyright (c) 1988,1990,1992,1993,1995,1998,2003,2009,2016,
            Gaussian, Inc.  All Rights Reserved.
  
 This is part of the Gaussian(R) 16 program.  It is based on
 the Gaussian(R) 09 system (copyright 2009, Gaussian, Inc.),
 the Gaussian(R) 03 system (copyright 2003, Gaussian, Inc.),
 the Gaussian(R) 98 system (copyright 1998, Gaussian, Inc.),
 the Gaussian(R) 94 system (copyright 1995, Gaussian, Inc.),
 the Gaussian 92(TM) system (copyright 1992, Gaussian, Inc.),
 the Gaussian 90(TM) system (copyright 1990, Gaussian, Inc.),
 the Gaussian 88(TM) system (copyright 1988, Gaussian, Inc.),
 the Gaussian 86(TM) system (copyright 1986, Carnegie Mellon
 University), and the Gaussian 82(TM) system (copyright 1983,
 Carnegie Mellon University). Gaussian is a federally registered
 trademark of Gaussian, Inc.
  
 This software contains proprietary and confidential information,
 including trade secrets, belonging to Gaussian, Inc.
  
 This software is provided under written license and may be
 used, copied, transmitted, or stored only in accord with that
 written license.
  
 The following legend is applicable only to US Government
 contracts under FAR:
  
                    RESTRICTED RIGHTS LEGEND
  
 Use, reproduction and disclosure by the US Government is
 subject to restrictions as set forth in subparagraphs (a)
 and (c) of the Commercial Computer Software - Restricted
 Rights clause in FAR 52.227-19.
  
 Gaussian, Inc.
 340 Quinnipiac St., Bldg. 40, Wallingford CT 06492
  
  
 ---------------------------------------------------------------
 Warning -- This program may not be used in any manner that
 competes with the business of Gaussian, Inc. or will provide
 assistance to any competitor of Gaussian, Inc.  The licensee
 of this program is prohibited from giving any competitor of
 Gaussian, Inc. access to this program.  By using this program,
 the user acknowledges that Gaussian, Inc. is engaged in the
 business of creating and licensing software in the field of
 computational chemistry and represents and warrants to the
 licensee that it is not a competitor of Gaussian, Inc. and that
 it will not use this program in any manner prohibited above.
 ---------------------------------------------------------------
  

 Cite this work as:
 Gaussian 16, Revision A.03,
 M. J. Frisch, G. W. Trucks, H. B. Schlegel, G. E. Scuseria, 
 M. A. Robb, J. R. Cheeseman, G. Scalmani, V. Barone, 
 G. A. Petersson, H. Nakatsuji, X. Li, M. Caricato, A. V. Marenich, 
 J. Bloino, B. G. Janesko, R. Gomperts, B. Mennucci, H. P. Hratchian, 
 J. V. Ortiz, A. F. Izmaylov, J. L. Sonnenberg, D. Williams-Young, 
 F. Ding, F. Lipparini, F. Egidi, J. Goings, B. Peng, A. Petrone, 
 T. Henderson, D. Ranasinghe, V. G. Zakrzewski, J. Gao, N. Rega, 
 G. Zheng, W. Liang, M. Hada, M. Ehara, K. Toyota, R. Fukuda, 
 J. Hasegawa, M. Ishida, T. Nakajima, Y. Honda, O. Kitao, H. Nakai, 
 T. Vreven, K. Throssell, J. A. Montgomery, Jr., J. E. Peralta, 
 F. Ogliaro, M. J. Bearpark, J. J. Heyd, E. N. Brothers, K. N. Kudin, 
 V. N. Staroverov, T. A. Keith, R. Kobayashi, J. Normand, 
 K. Raghavachari, A. P. Rendell, J. C. Burant, S. S. Iyengar, 
 J. Tomasi, M. Cossi, J. M. Millam, M. Klene, C. Adamo, R. Cammi, 
 J. W. Ochterski, R. L. Martin, K. Morokuma, O. Farkas, 
 J. B. Foresman, and D. J. Fox, Gaussian, Inc., Wallingford CT, 2016.
 
 ******************************************
 Gaussian 16:  ES64L-G16RevA.03 25-Dec-2016
                24-Feb-2021 
 ******************************************
 %nprocshared=16
 Will use up to   16 processors via shared memory.
 %mem=48GB
 ----------------------------------------------------------------------
 # wB97XD def2tzvp, opt=(ts, noeigen, calcfc, maxcycles=70, maxstep=1),
  freq=noraman, scrf=(iefpcm, solvent=water)
 ----------------------------------------------------------------------
 1/5=1,6=70,8=1,10=4,11=1,18=20,26=3,38=1/1,3;
 2/9=110,12=2,17=6,18=5,40=1/2;
 3/5=44,7=101,11=2,25=1,30=1,70=2201,71=2,72=1,74=-58,140=1/1,2,3;
 4//1;
 5/5=2,38=5,53=1/2;
 8/6=4,10=90,11=11/1;
 11/6=1,8=1,9=11,15=111,16=1/1,2,10;
 10/6=1,13=1/2;
 6/7=2,8=2,9=2,10=2,28=1/1;
 7/10=1,18=20,25=1/1,2,3,16;
 1/5=1,6=70,8=1,10=4,11=1,18=20,26=3/3(2);
 2/9=110/2;
 99//99;
 2/9=110/2;
 3/5=44,7=101,11=2,25=1,30=1,70=2205,71=1,72=1,74=-58/1,2,3;
 4/5=5,16=3,69=1/1;
 5/5=2,38=5,53=1/2;
 7//1,2,3,16;
 1/5=1,6=70,8=1,11=1,18=20,26=3/3(-5);
 2/9=110/2;
 6/7=2,8=2,9=2,10=2,19=2,28=1/1;
 99/9=1/99;
 ------------------------
 0_iteration/TS-858-0.out
 ------------------------
 Symbolic Z-matrix:
 Charge =  0 Multiplicity = 1
 C                    -0.69197  -0.54873  -0.14394 
 C                    -1.88881   0.16694   0.15064 
 O                    -2.97776  -0.16751  -0.34517 
 C                     0.52679  -0.10151   0.35235 
 C                     1.69977   2.26175  -0.50836 
 H                     2.2067    2.83383  -1.28442 
 H                     0.72571   2.70757  -0.31612 
 H                     2.29323   2.28771   0.40369 
 N                     1.51259   0.86829  -0.91345 
 H                     0.94657   0.79866  -1.75183 
 H                     2.39936   0.40932  -1.09032 
 Cl                    1.78957  -1.30223   0.77998 
 H                     0.52552   0.67221   1.10607 
 C                    -0.78192  -1.70326  -1.10445 
 H                     0.18654  -2.18473  -1.24094 
 H                    -1.4861   -2.46224  -0.755 
 H                    -1.13445  -1.37915  -2.08827 
 C                    -1.887     1.36965   1.08437 
 H                    -1.55866   2.26341   0.54927 
 H                    -2.90781   1.53832   1.42253 
 H                    -1.24655   1.2461    1.95753 
 
 Add virtual bond connecting atoms N9         and C4         Dist= 3.54D+00.

 GradGradGradGradGradGradGradGradGradGradGradGradGradGradGradGradGradGrad
 Berny optimization.
 Initialization pass.
                           ----------------------------
                           !    Initial Parameters    !
                           ! (Angstroms and Degrees)  !
 --------------------------                            --------------------------
 ! Name  Definition              Value          Derivative Info.                !
 --------------------------------------------------------------------------------
 ! R1    R(1,2)                  1.4253         calculate D2E/DX2 analytically  !
 ! R2    R(1,4)                  1.3899         calculate D2E/DX2 analytically  !
 ! R3    R(1,14)                 1.5045         calculate D2E/DX2 analytically  !
 ! R4    R(2,3)                  1.2424         calculate D2E/DX2 analytically  !
 ! R5    R(2,18)                 1.5226         calculate D2E/DX2 analytically  !
 ! R6    R(4,9)                  1.8747         calculate D2E/DX2 analytically  !
 ! R7    R(4,12)                 1.7942         calculate D2E/DX2 analytically  !
 ! R8    R(4,13)                 1.0802         calculate D2E/DX2 analytically  !
 ! R9    R(5,6)                  1.0893         calculate D2E/DX2 analytically  !
 ! R10   R(5,7)                  1.0883         calculate D2E/DX2 analytically  !
 ! R11   R(5,8)                  1.0884         calculate D2E/DX2 analytically  !
 ! R12   R(5,9)                  1.4632         calculate D2E/DX2 analytically  !
 ! R13   R(9,10)                 1.014          calculate D2E/DX2 analytically  !
 ! R14   R(9,11)                 1.0141         calculate D2E/DX2 analytically  !
 ! R15   R(14,15)                1.0901         calculate D2E/DX2 analytically  !
 ! R16   R(14,16)                1.0927         calculate D2E/DX2 analytically  !
 ! R17   R(14,17)                1.0942         calculate D2E/DX2 analytically  !
 ! R18   R(18,19)                1.0922         calculate D2E/DX2 analytically  !
 ! R19   R(18,20)                1.0885         calculate D2E/DX2 analytically  !
 ! R20   R(18,21)                1.0899         calculate D2E/DX2 analytically  !
 ! A1    A(2,1,4)              120.0651         calculate D2E/DX2 analytically  !
 ! A2    A(2,1,14)             117.8439         calculate D2E/DX2 analytically  !
 ! A3    A(4,1,14)             121.824          calculate D2E/DX2 analytically  !
 ! A4    A(1,2,3)              121.223          calculate D2E/DX2 analytically  !
 ! A5    A(1,2,18)             121.492          calculate D2E/DX2 analytically  !
 ! A6    A(3,2,18)             117.285          calculate D2E/DX2 analytically  !
 ! A7    A(1,4,9)              112.7347         calculate D2E/DX2 analytically  !
 ! A8    A(1,4,12)             119.1394         calculate D2E/DX2 analytically  !
 ! A9    A(1,4,13)             118.5956         calculate D2E/DX2 analytically  !
 ! A10   A(9,4,12)              97.8757         calculate D2E/DX2 analytically  !
 ! A11   A(9,4,13)              95.8091         calculate D2E/DX2 analytically  !
 ! A12   A(12,4,13)            108.2933         calculate D2E/DX2 analytically  !
 ! A13   A(6,5,7)              109.1002         calculate D2E/DX2 analytically  !
 ! A14   A(6,5,8)              109.3128         calculate D2E/DX2 analytically  !
 ! A15   A(6,5,9)              111.2512         calculate D2E/DX2 analytically  !
 ! A16   A(7,5,8)              109.2811         calculate D2E/DX2 analytically  !
 ! A17   A(7,5,9)              108.9366         calculate D2E/DX2 analytically  !
 ! A18   A(8,5,9)              108.9326         calculate D2E/DX2 analytically  !
 ! A19   A(4,9,5)              111.9005         calculate D2E/DX2 analytically  !
 ! A20   A(4,9,10)             103.2509         calculate D2E/DX2 analytically  !
 ! A21   A(4,9,11)             110.0883         calculate D2E/DX2 analytically  !
 ! A22   A(5,9,10)             111.4525         calculate D2E/DX2 analytically  !
 ! A23   A(5,9,11)             111.5594         calculate D2E/DX2 analytically  !
 ! A24   A(10,9,11)            108.2319         calculate D2E/DX2 analytically  !
 ! A25   A(1,14,15)            111.4532         calculate D2E/DX2 analytically  !
 ! A26   A(1,14,16)            111.5531         calculate D2E/DX2 analytically  !
 ! A27   A(1,14,17)            111.4679         calculate D2E/DX2 analytically  !
 ! A28   A(15,14,16)           107.805          calculate D2E/DX2 analytically  !
 ! A29   A(15,14,17)           107.7269         calculate D2E/DX2 analytically  !
 ! A30   A(16,14,17)           106.5983         calculate D2E/DX2 analytically  !
 ! A31   A(2,18,19)            110.2605         calculate D2E/DX2 analytically  !
 ! A32   A(2,18,20)            108.1674         calculate D2E/DX2 analytically  !
 ! A33   A(2,18,21)            113.7315         calculate D2E/DX2 analytically  !
 ! A34   A(19,18,20)           107.8978         calculate D2E/DX2 analytically  !
 ! A35   A(19,18,21)           107.9754         calculate D2E/DX2 analytically  !
 ! A36   A(20,18,21)           108.6485         calculate D2E/DX2 analytically  !
 ! D1    D(4,1,2,3)            175.7242         calculate D2E/DX2 analytically  !
 ! D2    D(4,1,2,18)            -4.3187         calculate D2E/DX2 analytically  !
 ! D3    D(14,1,2,3)             1.5508         calculate D2E/DX2 analytically  !
 ! D4    D(14,1,2,18)         -178.4921         calculate D2E/DX2 analytically  !
 ! D5    D(2,1,4,9)            -99.2094         calculate D2E/DX2 analytically  !
 ! D6    D(2,1,4,12)           146.9811         calculate D2E/DX2 analytically  !
 ! D7    D(2,1,4,13)            11.4862         calculate D2E/DX2 analytically  !
 ! D8    D(14,1,4,9)            74.7263         calculate D2E/DX2 analytically  !
 ! D9    D(14,1,4,12)          -39.0832         calculate D2E/DX2 analytically  !
 ! D10   D(14,1,4,13)         -174.5781         calculate D2E/DX2 analytically  !
 ! D11   D(2,1,14,15)         -179.0318         calculate D2E/DX2 analytically  !
 ! D12   D(2,1,14,16)          -58.4709         calculate D2E/DX2 analytically  !
 ! D13   D(2,1,14,17)           60.5655         calculate D2E/DX2 analytically  !
 ! D14   D(4,1,14,15)            6.9033         calculate D2E/DX2 analytically  !
 ! D15   D(4,1,14,16)          127.4643         calculate D2E/DX2 analytically  !
 ! D16   D(4,1,14,17)         -113.4994         calculate D2E/DX2 analytically  !
 ! D17   D(1,2,18,19)           81.1046         calculate D2E/DX2 analytically  !
 ! D18   D(1,2,18,20)         -161.1265         calculate D2E/DX2 analytically  !
 ! D19   D(1,2,18,21)          -40.3368         calculate D2E/DX2 analytically  !
 ! D20   D(3,2,18,19)          -98.9367         calculate D2E/DX2 analytically  !
 ! D21   D(3,2,18,20)           18.8322         calculate D2E/DX2 analytically  !
 ! D22   D(3,2,18,21)          139.6219         calculate D2E/DX2 analytically  !
 ! D23   D(1,4,9,5)            115.8662         calculate D2E/DX2 analytically  !
 ! D24   D(1,4,9,10)            -4.109          calculate D2E/DX2 analytically  !
 ! D25   D(1,4,9,11)          -119.4727         calculate D2E/DX2 analytically  !
 ! D26   D(12,4,9,5)          -117.9096         calculate D2E/DX2 analytically  !
 ! D27   D(12,4,9,10)          122.1152         calculate D2E/DX2 analytically  !
 ! D28   D(12,4,9,11)            6.7515         calculate D2E/DX2 analytically  !
 ! D29   D(13,4,9,5)            -8.4843         calculate D2E/DX2 analytically  !
 ! D30   D(13,4,9,10)         -128.4595         calculate D2E/DX2 analytically  !
 ! D31   D(13,4,9,11)          116.1769         calculate D2E/DX2 analytically  !
 ! D32   D(6,5,9,4)           -175.6522         calculate D2E/DX2 analytically  !
 ! D33   D(6,5,9,10)           -60.6025         calculate D2E/DX2 analytically  !
 ! D34   D(6,5,9,11)            60.5085         calculate D2E/DX2 analytically  !
 ! D35   D(7,5,9,4)            -55.3464         calculate D2E/DX2 analytically  !
 ! D36   D(7,5,9,10)            59.7032         calculate D2E/DX2 analytically  !
 ! D37   D(7,5,9,11)          -179.1857         calculate D2E/DX2 analytically  !
 ! D38   D(8,5,9,4)             63.7806         calculate D2E/DX2 analytically  !
 ! D39   D(8,5,9,10)           178.8302         calculate D2E/DX2 analytically  !
 ! D40   D(8,5,9,11)           -60.0587         calculate D2E/DX2 analytically  !
 --------------------------------------------------------------------------------
 Trust Radius=1.00D-02 FncErr=1.00D-07 GrdErr=1.00D-06 EigMax=2.50D+02 EigMin=1.00D-04
 Number of steps in this run=     70 maximum allowed number of steps=    126.
 Search for a saddle point of order  1.
 GradGradGradGradGradGradGradGradGradGradGradGradGradGradGradGradGradGrad

                          Input orientation:                          
 ---------------------------------------------------------------------
 Center     Atomic      Atomic             Coordinates (Angstroms)
 Number     Number       Type             X           Y           Z
 ---------------------------------------------------------------------
      1          6           0       -0.691970   -0.548730   -0.143940
      2          6           0       -1.888810    0.166940    0.150640
      3          8           0       -2.977760   -0.167510   -0.345170
      4          6           0        0.526790   -0.101510    0.352350
      5          6           0        1.699770    2.261750   -0.508360
      6          1           0        2.206700    2.833830   -1.284420
      7          1           0        0.725710    2.707570   -0.316120
      8          1           0        2.293230    2.287710    0.403690
      9          7           0        1.512590    0.868290   -0.913450
     10          1           0        0.946570    0.798660   -1.751830
     11          1           0        2.399360    0.409320   -1.090320
     12         17           0        1.789570   -1.302230    0.779980
     13          1           0        0.525520    0.672210    1.106070
     14          6           0       -0.781920   -1.703260   -1.104450
     15          1           0        0.186540   -2.184730   -1.240940
     16          1           0       -1.486100   -2.462240   -0.755000
     17          1           0       -1.134450   -1.379150   -2.088270
     18          6           0       -1.887000    1.369650    1.084370
     19          1           0       -1.558660    2.263410    0.549270
     20          1           0       -2.907810    1.538320    1.422530
     21          1           0       -1.246550    1.246100    1.957530
 ---------------------------------------------------------------------
                    Distance matrix (angstroms):
                    1          2          3          4          5
     1  C    0.000000
     2  C    1.425267   0.000000
     3  O    2.326082   1.242375   0.000000
     4  C    1.389851   2.438827   3.573900   0.000000
     5  C    3.708372   4.207186   5.273255   2.775194   0.000000
     6  H    4.598336   5.093614   6.063733   3.757304   1.089276
     7  H    3.555693   3.675375   4.688563   2.894366   1.088349
     8  H    4.154120   4.695866   5.862784   2.971753   1.088441
     9  N    2.731332   3.632313   4.643174   1.874717   1.463170
    10  H    2.661876   3.472440   4.279316   2.326821   2.062562
    11  H    3.371916   4.470697   5.459066   2.418421   2.063880
    12  Cl   2.753077   4.010612   5.028020   1.794216   3.790757
    13  H    2.129672   2.645210   3.883838   1.080157   2.551839
    14  C    1.504530   2.509602   2.785094   2.529939   4.715444
    15  H    2.156776   3.431315   3.858027   2.644645   4.753706
    16  H    2.159990   2.809795   2.767453   3.294085   5.703217
    17  H    2.160047   2.823503   2.811452   3.216941   4.876994
    18  C    2.572358   1.522618   2.365629   2.920025   4.024618
    19  H    3.023214   2.159419   2.953513   3.159229   3.425777
    20  H    3.423383   2.129964   2.457542   3.953581   5.047918
    21  H    2.818714   2.200440   3.209020   2.745431   3.974036
                    6          7          8          9         10
     6  H    0.000000
     7  H    1.773944   0.000000
     8  H    1.776359   1.775254   0.000000
     9  N    2.117252   2.087806   2.087824   0.000000
    10  H    2.438917   2.398745   2.945680   1.013957   0.000000
    11  H    2.439886   2.946599   2.402432   1.014050   1.643101
    12  Cl   4.641415   4.290889   3.644576   2.766872   3.396241
    13  H    3.635025   2.491062   2.495591   2.256372   2.891516
    14  C    5.435938   4.727561   5.259171   3.451685   3.109081
    15  H    5.410072   5.008053   5.210151   3.344636   3.120780
    16  H    6.478072   5.640182   6.179638   4.484382   4.188678
    17  H    5.436788   4.827214   5.603991   3.665789   3.030956
    18  C    4.951098   3.252331   4.333645   3.974904   4.049590
    19  H    4.226788   2.482846   3.854717   3.676749   3.703611
    20  H    5.929936   4.194343   5.352610   5.044371   5.047762
    21  H    4.995604   3.345921   4.003675   3.999765   4.332358
                   11         12         13         14         15
    11  H    0.000000
    12  Cl   2.607541   0.000000
    13  H    2.899054   2.366975   0.000000
    14  C    3.818866   3.213170   3.498379   0.000000
    15  H    3.412969   2.726285   3.712879   1.090118   0.000000
    16  H    4.843046   3.798921   4.163529   1.092719   1.763767
    17  H    4.084402   4.096665   4.143354   1.094178   1.764070
    18  C    4.901468   4.555081   2.511403   3.931273   4.726548
    19  H    4.668172   4.896699   2.680625   4.367217   5.102600
    20  H    5.979558   5.526932   3.555003   4.627405   5.525412
    21  H    4.825168   4.135050   2.048064   4.276719   4.904544
                   16         17         18         19         20
    16  H    0.000000
    17  H    1.753383   0.000000
    18  C    4.269354   4.264725   0.000000
    19  H    4.902872   4.517169   1.092221   0.000000
    20  H    4.771517   4.897158   1.088510   1.763106   0.000000
    21  H    4.600760   4.824210   1.089885   1.765086   1.769577
                   21
    21  H    0.000000
 Stoichiometry    C6H12ClNO
 Framework group  C1[X(C6H12ClNO)]
 Deg. of freedom    57
 Full point group                 C1      NOp   1
 Largest Abelian subgroup         C1      NOp   1
 Largest concise Abelian subgroup C1      NOp   1
                         Standard orientation:                         
 ---------------------------------------------------------------------
 Center     Atomic      Atomic             Coordinates (Angstroms)
 Number     Number       Type             X           Y           Z
 ---------------------------------------------------------------------
      1          6           0        0.691971   -0.548729    0.143940
      2          6           0        1.888809    0.166944   -0.150640
      3          8           0        2.977760   -0.167502    0.345170
      4          6           0       -0.526790   -0.101513   -0.352350
      5          6           0       -1.699777    2.261744    0.508360
      6          1           0       -2.206709    2.833822    1.284420
      7          1           0       -0.725719    2.707567    0.316120
      8          1           0       -2.293237    2.287702   -0.403690
      9          7           0       -1.512593    0.868284    0.913450
     10          1           0       -0.946573    0.798656    1.751830
     11          1           0       -2.399362    0.409312    1.090320
     12         17           0       -1.789567   -1.302236   -0.779980
     13          1           0       -0.525522    0.672207   -1.106070
     14          6           0        0.781925   -1.703259    1.104450
     15          1           0       -0.186534   -2.184732    1.240940
     16          1           0        1.486107   -2.462237    0.755000
     17          1           0        1.134454   -1.379148    2.088270
     18          6           0        1.886995    1.369654   -1.084370
     19          1           0        1.558653    2.263413   -0.549270
     20          1           0        2.907805    1.538327   -1.422530
     21          1           0        1.246546    1.246103   -1.957530
 ---------------------------------------------------------------------
 Rotational constants (GHZ):           1.5594680           0.9267074           0.7286600
 Standard basis: def2TZVP (5D, 7F)
 There are   402 symmetry adapted cartesian basis functions of A   symmetry.
 There are   357 symmetry adapted basis functions of A   symmetry.
   357 basis functions,   573 primitive gaussians,   402 cartesian basis functions
    40 alpha electrons       40 beta electrons
       nuclear repulsion energy       549.0844293658 Hartrees.
 NAtoms=   21 NActive=   21 NUniq=   21 SFac= 1.00D+00 NAtFMM=   60 NAOKFM=F Big=F
 Integral buffers will be    131072 words long.
 Raffenetti 2 integral format.
 Two-electron integral symmetry is turned on.
 Nuclear repulsion after empirical dispersion term =      549.0710315339 Hartrees.
 Force inversion solution in PCM.
 ------------------------------------------------------------------------------
 Polarizable Continuum Model (PCM)
 =================================
 Model                : PCM.
 Atomic radii         : UFF (Universal Force Field).
 Polarization charges : Total charges.
 Charge compensation  : None.
 Solution method      : Matrix inversion.
 Cavity type          : Scaled VdW (van der Waals Surface) (Alpha=1.100).
 Cavity algorithm     : GePol (No added spheres)
                        Default sphere list used, NSphG=   21.
                        Lebedev-Laikov grids with approx.  5.0 points / Ang**2.
                        Smoothing algorithm: York/Karplus (Gamma=1.0000).
                        Polarization charges: spherical gaussians, with
                                              point-specific exponents (IZeta= 3).
                        Self-potential: point-specific (ISelfS= 7).
                        Self-field    : sphere-specific E.n sum rule (ISelfD= 2).
 1st derivatives      : Analytical E(r).r(x)/FMM algorithm (CHGder, D1EAlg=3).
                        Cavity 1st derivative terms included.
 2nd derivatives      : Analytical E(r).r(xy)/FMM algorithm (CHGder, D2EAlg=3).
                        Cavity 2nd derivative terms included.
 Solvent              : Water, Eps=  78.355300 Eps(inf)=   1.777849
 ------------------------------------------------------------------------------
 One-electron integrals computed using PRISM.
   1 Symmetry operations used in ECPInt.
 ECPInt:  NShTT=   11175 NPrTT=   33918 LenC2=   10809 LenP2D=   25384.
 LDataN:  DoStor=T MaxTD1= 6 Len=  172
 NBasis=   357 RedAO= T EigKep=  9.20D-05  NBF=   357
 NBsUse=   357 1.00D-06 EigRej= -1.00D+00 NBFU=   357
 ExpMin= 9.52D-02 ExpMax= 6.95D+04 ExpMxC= 2.37D+03 IAcc=3 IRadAn=         5 AccDes= 0.00D+00
 Harris functional with IExCor= 4639 and IRadAn=       5 diagonalized for initial guess.
 HarFok:  IExCor= 4639 AccDes= 0.00D+00 IRadAn=         5 IDoV= 1 UseB2=F ITyADJ=14
 ICtDFT=  3500011 ScaDFX=  1.000000  1.000000  1.000000  1.000000
 FoFCou: FMM=F IPFlag=           0 FMFlag=      100000 FMFlg1=           0
         NFxFlg=           0 DoJE=T BraDBF=F KetDBF=T FulRan=T
         wScrn=  0.000000 ICntrl=       500 IOpCl=  0 I1Cent=   200000004 NGrid=           0
         NMat0=    1 NMatS0=      1 NMatT0=    0 NMatD0=    1 NMtDS0=    0 NMtDT0=    0
 Petite list used in FoFCou.
 Requested convergence on RMS density matrix=1.00D-08 within 128 cycles.
 Requested convergence on MAX density matrix=1.00D-06.
 Requested convergence on             energy=1.00D-06.
 No special actions if energy rises.
 Inv3:  Mode=1 IEnd=     7718448.
 Iteration    1 A*A^-1 deviation from unit magnitude is 4.55D-15 for   1604.
 Iteration    1 A*A^-1 deviation from orthogonality  is 2.41D-15 for   1578   1129.
 Iteration    1 A^-1*A deviation from unit magnitude is 4.22D-15 for   1604.
 Iteration    1 A^-1*A deviation from orthogonality  is 1.27D-15 for   1214    438.
 Error on total polarization charges =  0.01301
 SCF Done:  E(RwB97XD) =  -826.031585239     A.U. after   15 cycles
            NFock= 15  Conv=0.37D-08     -V/T= 2.0030
 DoSCS=F DFT=T ScalE2(SS,OS)=  1.000000  1.000000
 Range of M.O.s used for correlation:     1   357
 NBasis=   357 NAE=    40 NBE=    40 NFC=     0 NFV=     0
 NROrb=    357 NOA=    40 NOB=    40 NVA=   317 NVB=   317

 **** Warning!!: The largest alpha MO coefficient is  0.26744848D+02

   1 Symmetry operations used in ECPInt.
 ECPInt:  NShTT=   11175 NPrTT=   33918 LenC2=   10809 LenP2D=   25384.
 LDataN:  DoStor=T MaxTD1= 7 Len=  274
 Symmetrizing basis deriv contribution to polar:
 IMax=3 JMax=2 DiffMx= 0.00D+00
 G2DrvN: will do    22 centers at a time, making    1 passes.
 Calling FoFCou, ICntrl=  3107 FMM=F I1Cent=   0 AccDes= 0.00D+00.
 NEqPCM:  Using equilibrium solvation (IEInf=0, Eps=  78.3553, EpsInf=   1.7778)
 G2PCM: DoFxE=T DoFxN=T DoGrad=T DoDP/DQ/DG/TGxP=FFFF NFrqRd=   0 IEInf=0 SqF1=F DoCFld=F IF1Alg=4.
 End of G2Drv F.D. properties file   721 does not exist.
 End of G2Drv F.D. properties file   722 does not exist.
 End of G2Drv F.D. properties file   788 does not exist.
          IDoAtm=111111111111111111111
 NEqPCM:  Using equilibrium solvation (IEInf=0, Eps=  78.3553, EpsInf=   1.7778)
          Differentiating once with respect to nuclear coordinates.
 Keep R1 ints in memory in canonical form, NReq=4116393721.
          There are    66 degrees of freedom in the 1st order CPHF.  IDoFFX=6 NUNeed=     0.
     60 vectors produced by pass  0 Test12= 1.92D-14 1.52D-09 XBig12= 1.04D-01 1.47D-01.
 AX will form    60 AO Fock derivatives at one time.
     60 vectors produced by pass  1 Test12= 1.92D-14 1.52D-09 XBig12= 3.34D-02 4.72D-02.
     60 vectors produced by pass  2 Test12= 1.92D-14 1.52D-09 XBig12= 7.05D-04 4.11D-03.
     60 vectors produced by pass  3 Test12= 1.92D-14 1.52D-09 XBig12= 1.03D-05 5.04D-04.
     60 vectors produced by pass  4 Test12= 1.92D-14 1.52D-09 XBig12= 1.08D-07 4.34D-05.
     60 vectors produced by pass  5 Test12= 1.92D-14 1.52D-09 XBig12= 8.85D-10 2.91D-06.
     59 vectors produced by pass  6 Test12= 1.92D-14 1.52D-09 XBig12= 5.94D-12 2.19D-07.
     19 vectors produced by pass  7 Test12= 1.92D-14 1.52D-09 XBig12= 3.63D-14 1.71D-08.
 InvSVY:  IOpt=1 It=  1 EMax= 3.89D-16
 Solved reduced A of dimension   438 with    66 vectors.
 End of Minotr F.D. properties file   721 does not exist.
 End of Minotr F.D. properties file   722 does not exist.
 End of Minotr F.D. properties file   788 does not exist.

 **********************************************************************

            Population analysis using the SCF density.

 **********************************************************************

 Orbital symmetries:
       Occupied  (A) (A) (A) (A) (A) (A) (A) (A) (A) (A) (A) (A)
                 (A) (A) (A) (A) (A) (A) (A) (A) (A) (A) (A) (A)
                 (A) (A) (A) (A) (A) (A) (A) (A) (A) (A) (A) (A)
                 (A) (A) (A) (A)
       Virtual   (A) (A) (A) (A) (A) (A) (A) (A) (A) (A) (A) (A)
                 (A) (A) (A) (A) (A) (A) (A) (A) (A) (A) (A) (A)
                 (A) (A) (A) (A) (A) (A) (A) (A) (A) (A) (A) (A)
                 (A) (A) (A) (A) (A) (A) (A) (A) (A) (A) (A) (A)
                 (A) (A) (A) (A) (A) (A) (A) (A) (A) (A) (A) (A)
                 (A) (A) (A) (A) (A) (A) (A) (A) (A) (A) (A) (A)
                 (A) (A) (A) (A) (A) (A) (A) (A) (A) (A) (A) (A)
                 (A) (A) (A) (A) (A) (A) (A) (A) (A) (A) (A) (A)
                 (A) (A) (A) (A) (A) (A) (A) (A) (A) (A) (A) (A)
                 (A) (A) (A) (A) (A) (A) (A) (A) (A) (A) (A) (A)
                 (A) (A) (A) (A) (A) (A) (A) (A) (A) (A) (A) (A)
                 (A) (A) (A) (A) (A) (A) (A) (A) (A) (A) (A) (A)
                 (A) (A) (A) (A) (A) (A) (A) (A) (A) (A) (A) (A)
                 (A) (A) (A) (A) (A) (A) (A) (A) (A) (A) (A) (A)
                 (A) (A) (A) (A) (A) (A) (A) (A) (A) (A) (A) (A)
                 (A) (A) (A) (A) (A) (A) (A) (A) (A) (A) (A) (A)
                 (A) (A) (A) (A) (A) (A) (A) (A) (A) (A) (A) (A)
                 (A) (A) (A) (A) (A) (A) (A) (A) (A) (A) (A) (A)
                 (A) (A) (A) (A) (A) (A) (A) (A) (A) (A) (A) (A)
                 (A) (A) (A) (A) (A) (A) (A) (A) (A) (A) (A) (A)
                 (A) (A) (A) (A) (A) (A) (A) (A) (A) (A) (A) (A)
                 (A) (A) (A) (A) (A) (A) (A) (A) (A) (A) (A) (A)
                 (A) (A) (A) (A) (A) (A) (A) (A) (A) (A) (A) (A)
                 (A) (A) (A) (A) (A) (A) (A) (A) (A) (A) (A) (A)
                 (A) (A) (A) (A) (A) (A) (A) (A) (A) (A) (A) (A)
                 (A) (A) (A) (A) (A) (A) (A) (A) (A) (A) (A) (A)
                 (A) (A) (A) (A) (A)
 The electronic state is 1-A.
 Alpha  occ. eigenvalues -- -101.69642 -19.19588 -14.49832 -10.39096 -10.34450
 Alpha  occ. eigenvalues --  -10.32558 -10.27095 -10.26609 -10.25701  -9.58236
 Alpha  occ. eigenvalues --   -7.32852  -7.32032  -7.31998  -1.10146  -1.05303
 Alpha  occ. eigenvalues --   -0.96544  -0.87941  -0.82258  -0.79806  -0.77342
 Alpha  occ. eigenvalues --   -0.69754  -0.64395  -0.61369  -0.56798  -0.56140
 Alpha  occ. eigenvalues --   -0.55371  -0.53165  -0.51519  -0.49571  -0.48549
 Alpha  occ. eigenvalues --   -0.48321  -0.47735  -0.46491  -0.44925  -0.43928
 Alpha  occ. eigenvalues --   -0.41860  -0.39722  -0.39128  -0.31521  -0.26979
 Alpha virt. eigenvalues --    0.05174   0.08756   0.10012   0.12817   0.13960
 Alpha virt. eigenvalues --    0.14980   0.15493   0.16345   0.17580   0.18665
 Alpha virt. eigenvalues --    0.19821   0.20374   0.21099   0.22025   0.22275
 Alpha virt. eigenvalues --    0.23536   0.24093   0.25414   0.26976   0.27548
 Alpha virt. eigenvalues --    0.29500   0.30212   0.30782   0.32391   0.32984
 Alpha virt. eigenvalues --    0.34969   0.35476   0.36390   0.38284   0.38658
 Alpha virt. eigenvalues --    0.39176   0.39772   0.42156   0.42901   0.43583
 Alpha virt. eigenvalues --    0.45274   0.45993   0.46352   0.48598   0.48807
 Alpha virt. eigenvalues --    0.48995   0.50085   0.50695   0.51417   0.52364
 Alpha virt. eigenvalues --    0.52890   0.53074   0.54413   0.54825   0.55579
 Alpha virt. eigenvalues --    0.56210   0.56884   0.57537   0.58254   0.58533
 Alpha virt. eigenvalues --    0.60052   0.60582   0.61011   0.63577   0.64267
 Alpha virt. eigenvalues --    0.65276   0.66096   0.67433   0.69635   0.70563
 Alpha virt. eigenvalues --    0.71390   0.73881   0.76755   0.79638   0.79995
 Alpha virt. eigenvalues --    0.80639   0.83953   0.84348   0.85745   0.88594
 Alpha virt. eigenvalues --    0.91649   0.94628   0.96054   0.96702   0.98048
 Alpha virt. eigenvalues --    0.99646   1.00158   1.01666   1.04145   1.07316
 Alpha virt. eigenvalues --    1.08544   1.10240   1.10992   1.11540   1.15563
 Alpha virt. eigenvalues --    1.16529   1.17152   1.18574   1.21177   1.22968
 Alpha virt. eigenvalues --    1.24447   1.26001   1.31916   1.33431   1.34911
 Alpha virt. eigenvalues --    1.37047   1.39329   1.40922   1.44598   1.44867
 Alpha virt. eigenvalues --    1.47370   1.48357   1.52563   1.54376   1.57403
 Alpha virt. eigenvalues --    1.59358   1.59848   1.61829   1.62537   1.62947
 Alpha virt. eigenvalues --    1.63874   1.64425   1.65577   1.66063   1.66870
 Alpha virt. eigenvalues --    1.67894   1.71224   1.72307   1.73531   1.74428
 Alpha virt. eigenvalues --    1.78278   1.79650   1.80532   1.83844   1.86234
 Alpha virt. eigenvalues --    1.87707   1.88429   1.90380   1.92006   1.93563
 Alpha virt. eigenvalues --    1.94304   1.95102   1.96453   1.98600   1.99448
 Alpha virt. eigenvalues --    2.00531   2.02260   2.03557   2.05131   2.05881
 Alpha virt. eigenvalues --    2.06778   2.08528   2.10704   2.11776   2.12807
 Alpha virt. eigenvalues --    2.13128   2.15336   2.16755   2.17787   2.18505
 Alpha virt. eigenvalues --    2.21316   2.23692   2.26941   2.29132   2.30569
 Alpha virt. eigenvalues --    2.31629   2.33572   2.33900   2.35552   2.37146
 Alpha virt. eigenvalues --    2.38980   2.39640   2.40941   2.42562   2.43124
 Alpha virt. eigenvalues --    2.44327   2.45577   2.46749   2.48901   2.49899
 Alpha virt. eigenvalues --    2.51375   2.53107   2.54275   2.57063   2.58447
 Alpha virt. eigenvalues --    2.61879   2.63074   2.65352   2.66209   2.67102
 Alpha virt. eigenvalues --    2.68902   2.70104   2.70545   2.75250   2.76749
 Alpha virt. eigenvalues --    2.77236   2.80780   2.81352   2.82026   2.83413
 Alpha virt. eigenvalues --    2.85301   2.87909   2.89585   2.91422   2.94276
 Alpha virt. eigenvalues --    2.96347   3.00018   3.02638   3.04152   3.05926
 Alpha virt. eigenvalues --    3.07570   3.08967   3.10642   3.11759   3.15282
 Alpha virt. eigenvalues --    3.16034   3.19087   3.19312   3.21126   3.22913
 Alpha virt. eigenvalues --    3.24790   3.24949   3.25101   3.27289   3.29340
 Alpha virt. eigenvalues --    3.30339   3.31253   3.34450   3.34911   3.35793
 Alpha virt. eigenvalues --    3.38609   3.39227   3.40134   3.42414   3.43381
 Alpha virt. eigenvalues --    3.45258   3.46519   3.48834   3.51637   3.53222
 Alpha virt. eigenvalues --    3.56024   3.56529   3.61880   3.62039   3.63311
 Alpha virt. eigenvalues --    3.63760   3.65768   3.68018   3.68592   3.76377
 Alpha virt. eigenvalues --    3.79480   3.81829   3.87269   3.89377   3.92129
 Alpha virt. eigenvalues --    3.93162   3.93931   3.96913   4.00157   4.02801
 Alpha virt. eigenvalues --    4.05399   4.09210   4.11654   4.14850   4.18773
 Alpha virt. eigenvalues --    4.22092   4.24655   4.26419   4.28094   4.31986
 Alpha virt. eigenvalues --    4.39163   4.41786   4.44520   4.46648   4.50960
 Alpha virt. eigenvalues --    4.51713   4.53643   4.57779   4.62396   4.64441
 Alpha virt. eigenvalues --    4.68534   4.69511   4.76215   4.89314   4.93507
 Alpha virt. eigenvalues --    4.95119   4.98164   5.03574   5.07484   5.08578
 Alpha virt. eigenvalues --    5.14406   5.18910   5.26899   5.27202   5.32743
 Alpha virt. eigenvalues --    5.34279   5.42832   5.49701   5.56074   5.68243
 Alpha virt. eigenvalues --    5.82088   5.87628   6.18823   6.42479   6.51899
 Alpha virt. eigenvalues --    6.64331   6.69924   6.93908   7.16092   7.19666
 Alpha virt. eigenvalues --   10.86898  10.88775  11.39729  22.39124  22.46043
 Alpha virt. eigenvalues --   22.52504  22.57691  22.88124  23.41552  25.52195
 Alpha virt. eigenvalues --   32.15598  44.04142
          Condensed to atoms (all electrons):
               1          2          3          4          5          6
     1  C    6.515063  -0.108510  -0.233217   0.315608  -0.007791  -0.000050
     2  C   -0.108510   4.934395   0.716076   0.011760   0.000721  -0.000221
     3  O   -0.233217   0.716076   8.106811   0.003479   0.000013   0.000002
     4  C    0.315608   0.011760   0.003479   5.057275   0.004204   0.000324
     5  C   -0.007791   0.000721   0.000013   0.004204   4.862400   0.412086
     6  H   -0.000050  -0.000221   0.000002   0.000324   0.412086   0.495005
     7  H   -0.005491   0.002272  -0.000093   0.014743   0.409201  -0.020320
     8  H    0.002143   0.000248  -0.000000  -0.005239   0.413574  -0.019178
     9  N   -0.001944  -0.008664   0.000485  -0.059724   0.251766  -0.021558
    10  H    0.003870   0.002418  -0.000062  -0.012800  -0.017419  -0.004981
    11  H   -0.004495   0.000138  -0.000000   0.011473  -0.022855  -0.004671
    12  Cl  -0.063651  -0.000635  -0.000184   0.310586  -0.000368  -0.000408
    13  H   -0.073706  -0.002580   0.000256   0.473864  -0.001409   0.000571
    14  C    0.194420  -0.036236   0.018398  -0.083486  -0.000157   0.000083
    15  H   -0.083645   0.018389   0.002786   0.005702  -0.000035  -0.000002
    16  H   -0.041229  -0.004283   0.007149   0.006277  -0.000003  -0.000002
    17  H   -0.042116  -0.000631   0.004954  -0.015915   0.000092   0.000014
    18  C   -0.238026   0.381352  -0.110940  -0.018137  -0.003288   0.000145
    19  H    0.004177  -0.023329   0.003254   0.000925  -0.000255   0.000121
    20  H    0.023166  -0.043368   0.012402   0.000992   0.000133  -0.000002
    21  H    0.034797  -0.065264   0.004924  -0.017006  -0.000090  -0.000016
               7          8          9         10         11         12
     1  C   -0.005491   0.002143  -0.001944   0.003870  -0.004495  -0.063651
     2  C    0.002272   0.000248  -0.008664   0.002418   0.000138  -0.000635
     3  O   -0.000093  -0.000000   0.000485  -0.000062  -0.000000  -0.000184
     4  C    0.014743  -0.005239  -0.059724  -0.012800   0.011473   0.310586
     5  C    0.409201   0.413574   0.251766  -0.017419  -0.022855  -0.000368
     6  H   -0.020320  -0.019178  -0.021558  -0.004981  -0.004671  -0.000408
     7  H    0.514086  -0.023581  -0.041342  -0.005155   0.006012   0.000623
     8  H   -0.023581   0.498658  -0.034866   0.005566  -0.004606   0.003754
     9  N   -0.041342  -0.034866   6.578401   0.349505   0.338702  -0.076286
    10  H   -0.005155   0.005566   0.349505   0.404362  -0.017841   0.003959
    11  H    0.006012  -0.004606   0.338702  -0.017841   0.410254   0.006024
    12  Cl   0.000623   0.003754  -0.076286   0.003959   0.006024  16.996709
    13  H   -0.004480  -0.000315  -0.033079   0.001274   0.000501  -0.028504
    14  C   -0.000521  -0.000057   0.016296  -0.001069  -0.001417  -0.015105
    15  H    0.000010   0.000005  -0.002890   0.000404   0.000193   0.006753
    16  H    0.000020   0.000002  -0.001198   0.000134   0.000059   0.002127
    17  H   -0.000070  -0.000011   0.004575  -0.000837  -0.000138   0.000047
    18  C   -0.000272  -0.000083   0.004474  -0.000634   0.000009  -0.002542
    19  H    0.000135  -0.000049   0.001280  -0.000019  -0.000044   0.000023
    20  H    0.000136  -0.000008  -0.000239   0.000004   0.000004   0.000048
    21  H   -0.000298   0.000100   0.000386   0.000034  -0.000026   0.001114
              13         14         15         16         17         18
     1  C   -0.073706   0.194420  -0.083645  -0.041229  -0.042116  -0.238026
     2  C   -0.002580  -0.036236   0.018389  -0.004283  -0.000631   0.381352
     3  O    0.000256   0.018398   0.002786   0.007149   0.004954  -0.110940
     4  C    0.473864  -0.083486   0.005702   0.006277  -0.015915  -0.018137
     5  C   -0.001409  -0.000157  -0.000035  -0.000003   0.000092  -0.003288
     6  H    0.000571   0.000083  -0.000002  -0.000002   0.000014   0.000145
     7  H   -0.004480  -0.000521   0.000010   0.000020  -0.000070  -0.000272
     8  H   -0.000315  -0.000057   0.000005   0.000002  -0.000011  -0.000083
     9  N   -0.033079   0.016296  -0.002890  -0.001198   0.004575   0.004474
    10  H    0.001274  -0.001069   0.000404   0.000134  -0.000837  -0.000634
    11  H    0.000501  -0.001417   0.000193   0.000059  -0.000138   0.000009
    12  Cl  -0.028504  -0.015105   0.006753   0.002127   0.000047  -0.002542
    13  H    0.476937   0.004282   0.000862  -0.000194  -0.000230   0.005114
    14  C    0.004282   5.008999   0.428295   0.398124   0.419832   0.020293
    15  H    0.000862   0.428295   0.548115  -0.021246  -0.024914   0.000516
    16  H   -0.000194   0.398124  -0.021246   0.574409  -0.035230  -0.000443
    17  H   -0.000230   0.419832  -0.024914  -0.035230   0.575147   0.001082
    18  C    0.005114   0.020293   0.000516  -0.000443   0.001082   5.205004
    19  H   -0.004421  -0.001159  -0.000037  -0.000067   0.000129   0.379289
    20  H    0.000195  -0.000654  -0.000013   0.000050  -0.000095   0.379826
    21  H    0.005471  -0.000071  -0.000122  -0.000038  -0.000054   0.399588
              19         20         21
     1  C    0.004177   0.023166   0.034797
     2  C   -0.023329  -0.043368  -0.065264
     3  O    0.003254   0.012402   0.004924
     4  C    0.000925   0.000992  -0.017006
     5  C   -0.000255   0.000133  -0.000090
     6  H    0.000121  -0.000002  -0.000016
     7  H    0.000135   0.000136  -0.000298
     8  H   -0.000049  -0.000008   0.000100
     9  N    0.001280  -0.000239   0.000386
    10  H   -0.000019   0.000004   0.000034
    11  H   -0.000044   0.000004  -0.000026
    12  Cl   0.000023   0.000048   0.001114
    13  H   -0.004421   0.000195   0.005471
    14  C   -0.001159  -0.000654  -0.000071
    15  H   -0.000037  -0.000013  -0.000122
    16  H   -0.000067   0.000050  -0.000038
    17  H    0.000129  -0.000095  -0.000054
    18  C    0.379289   0.379826   0.399588
    19  H    0.539361  -0.011969  -0.024596
    20  H   -0.011969   0.528011  -0.014010
    21  H   -0.024596  -0.014010   0.536715
 Mulliken charges:
               1
     1  C   -0.189374
     2  C    0.225952
     3  O   -0.536492
     4  C   -0.004906
     5  C   -0.300518
     6  H    0.163059
     7  H    0.154384
     8  H    0.163946
     9  N   -0.264079
    10  H    0.289286
    11  H    0.282725
    12  Cl  -0.144086
    13  H    0.179590
    14  C   -0.369090
    15  H    0.120874
    16  H    0.115580
    17  H    0.114368
    18  C   -0.402324
    19  H    0.137252
    20  H    0.125390
    21  H    0.138462
 Sum of Mulliken charges =  -0.00000
 Mulliken charges with hydrogens summed into heavy atoms:
               1
     1  C   -0.189374
     2  C    0.225952
     3  O   -0.536492
     4  C    0.174684
     5  C    0.180870
     9  N    0.307933
    12  Cl  -0.144086
    14  C   -0.018268
    18  C   -0.001219
 APT charges:
               1
     1  C    0.156565
     2  C   -0.405020
     3  O   -0.062792
     4  C   -0.547540
     5  C   -1.169653
     6  H    0.692686
     7  H    0.214332
     8  H    0.404978
     9  N   -0.625613
    10  H    0.423115
    11  H    0.645906
    12  Cl   0.075822
    13  H    0.364529
    14  C   -1.314984
    15  H    0.306544
    16  H    0.449209
    17  H    0.365587
    18  C   -1.086555
    19  H    0.281176
    20  H    0.610068
    21  H    0.221639
 Sum of APT charges =  -0.00000
 APT charges with hydrogens summed into heavy atoms:
               1
     1  C    0.156565
     2  C   -0.405020
     3  O   -0.062792
     4  C   -0.183011
     5  C    0.142343
     9  N    0.443408
    12  Cl   0.075822
    14  C   -0.193643
    18  C    0.026328
 Electronic spatial extent (au):  <R**2>=           1704.9640
 Charge=             -0.0000 electrons
 Dipole moment (field-independent basis, Debye):
    X=             -9.5362    Y=              5.8039    Z=              1.6822  Tot=             11.2896
 Quadrupole moment (field-independent basis, Debye-Ang):
   XX=            -78.4901   YY=            -58.3155   ZZ=            -58.8589
   XY=             -3.6408   XZ=             -9.1583   YZ=              1.0229
 Traceless Quadrupole moment (field-independent basis, Debye-Ang):
   XX=            -13.2686   YY=              6.9060   ZZ=              6.3626
   XY=             -3.6408   XZ=             -9.1583   YZ=              1.0229
 Octapole moment (field-independent basis, Debye-Ang**2):
  XXX=           -100.4116  YYY=             19.2803  ZZZ=              8.9400  XYY=            -12.1170
  XXY=             18.9810  XXZ=             -1.7335  XZZ=            -10.6812  YZZ=              7.9428
  YYZ=              4.9229  XYZ=             -2.6270
 Hexadecapole moment (field-independent basis, Debye-Ang**3):
 XXXX=          -1376.3735 YYYY=           -694.0298 ZZZZ=           -299.8505 XXXY=             -0.5994
 XXXZ=            -61.3583 YYYX=            -19.9915 YYYZ=             23.0529 ZZZX=            -11.2784
 ZZZY=             15.2300 XXYY=           -296.2154 XXZZ=           -241.6523 YYZZ=           -170.8199
 XXYZ=              9.5196 YYXZ=             -8.0151 ZZXY=             -5.9265
 N-N= 5.490710315339D+02 E-N=-3.045059143898D+03  KE= 8.235528258339D+02
  Exact polarizability:   0.000   0.000   0.000   0.000   0.000   0.000
 Approx polarizability: 142.972  -1.548 106.296   4.407   0.913  96.947
   1 Symmetry operations used in ECPInt.
 ECPInt:  NShTT=   11175 NPrTT=   33918 LenC2=   10809 LenP2D=   25384.
 LDataN:  DoStor=T MaxTD1= 8 Len=  415
 D2PCM: PCM CHGder 2nd derivatives, FixD1E=F FixD2E=F DoIter=F DoCFld=F I1PDM=0
 Calling FoFJK, ICntrl=    100147 FMM=F ISym2X=0 I1Cent= 0 IOpClX= 0 NMat=1 NMatS=1 NMatT=0.
 ***** Axes restored to original set *****
 -------------------------------------------------------------------
 Center     Atomic                   Forces (Hartrees/Bohr)
 Number     Number              X              Y              Z
 -------------------------------------------------------------------
      1        6          -0.000003610    0.000003116   -0.000001746
      2        6           0.000006392   -0.000009139   -0.000004398
      3        8           0.000000697   -0.000002218   -0.000005673
      4        6           0.001715170    0.001687548   -0.002205065
      5        6          -0.000004901    0.000003609    0.000007621
      6        1           0.000000213    0.000005850    0.000005504
      7        1          -0.000000505   -0.000000199    0.000003152
      8        1          -0.000003568    0.000004263    0.000006833
      9        7          -0.001723633   -0.001686921    0.002203534
     10        1           0.000005308    0.000003246    0.000006149
     11        1           0.000005117    0.000003769    0.000004440
     12       17           0.000002126    0.000000438    0.000003367
     13        1          -0.000000602    0.000000134    0.000001262
     14        6           0.000009733   -0.000003466   -0.000006320
     15        1           0.000002690    0.000002888   -0.000000782
     16        1           0.000005546   -0.000000717   -0.000005224
     17        1           0.000006443    0.000000442   -0.000002173
     18        6          -0.000014455   -0.000000574   -0.000005406
     19        1          -0.000003657   -0.000002192   -0.000001122
     20        1          -0.000000397   -0.000006738   -0.000005917
     21        1          -0.000004108   -0.000003140    0.000001963
 -------------------------------------------------------------------
 Cartesian Forces:  Max     0.002205065 RMS     0.000581806
 FormGI is forming the generalized inverse of G from B-inverse, IUseBI=4.

 GradGradGradGradGradGradGradGradGradGradGradGradGradGradGradGradGradGrad
 Berny optimization.
 Internal  Forces:  Max     0.003264695 RMS     0.000333207
 Search for a saddle point.
 Step number   1 out of a maximum of   70
 All quantities printed in internal units (Hartrees-Bohrs-Radians)
 Swapping is turned off.
 Second derivative matrix not updated -- analytic derivatives used.
 ITU=  0
     Eigenvalues ---   -0.03887  -0.00089   0.00015   0.00045   0.00200
     Eigenvalues ---    0.00847   0.01242   0.01602   0.02181   0.03468
     Eigenvalues ---    0.03976   0.04437   0.04705   0.04835   0.05234
     Eigenvalues ---    0.05425   0.05660   0.05726   0.05749   0.07024
     Eigenvalues ---    0.08460   0.09796   0.11727   0.11752   0.11959
     Eigenvalues ---    0.13187   0.13253   0.13423   0.14459   0.14541
     Eigenvalues ---    0.14891   0.16145   0.17656   0.18125   0.19568
     Eigenvalues ---    0.21543   0.22995   0.23821   0.28360   0.32789
     Eigenvalues ---    0.33146   0.33989   0.34243   0.34292   0.34535
     Eigenvalues ---    0.34592   0.34813   0.34869   0.35023   0.35704
     Eigenvalues ---    0.36453   0.37567   0.44958   0.45222   0.45315
     Eigenvalues ---    0.51600   0.71789
 Eigenvectors required to have negative eigenvalues:
                          R6        D6        D9        A11       D5
   1                    0.87408   0.22095   0.21018  -0.17090   0.12879
                          R7        R2        D8        A10       A9
   1                   -0.12246  -0.12087   0.11802  -0.08852   0.08475
 RFO step:  Lambda0=2.084595207D-04 Lambda=-8.98139673D-04.
 Linear search not attempted -- option 19 set.
 Maximum step size (   0.010) exceeded in Quadratic search.
    -- Step size scaled by   0.181
 Iteration  1 RMS(Cart)=  0.00592726 RMS(Int)=  0.00001171
 Iteration  2 RMS(Cart)=  0.00001576 RMS(Int)=  0.00000054
 Iteration  3 RMS(Cart)=  0.00000000 RMS(Int)=  0.00000054
 Variable       Old X    -DE/DX   Delta X   Delta X   Delta X     New X
                                 (Linear)    (Quad)   (Total)
    R1        2.69336  -0.00000   0.00000   0.00103   0.00103   2.69440
    R2        2.62644   0.00000   0.00000  -0.00122  -0.00122   2.62522
    R3        2.84315   0.00000   0.00000  -0.00011  -0.00011   2.84303
    R4        2.34775  -0.00000   0.00000  -0.00051  -0.00051   2.34724
    R5        2.87733   0.00000   0.00000  -0.00026  -0.00026   2.87707
    R6        3.54270  -0.00326   0.00000   0.00846   0.00846   3.55116
    R7        3.39058   0.00000   0.00000  -0.00223  -0.00223   3.38835
    R8        2.04120   0.00000   0.00000  -0.00007  -0.00007   2.04113
    R9        2.05843   0.00000   0.00000   0.00012   0.00012   2.05855
   R10        2.05668  -0.00000   0.00000   0.00004   0.00004   2.05672
   R11        2.05686   0.00000   0.00000   0.00009   0.00009   2.05695
   R12        2.76499   0.00000   0.00000  -0.00029  -0.00029   2.76470
   R13        1.91610  -0.00000   0.00000  -0.00011  -0.00011   1.91599
   R14        1.91628   0.00000   0.00000  -0.00009  -0.00009   1.91619
   R15        2.06002  -0.00000   0.00000  -0.00011  -0.00011   2.05992
   R16        2.06494  -0.00000   0.00000  -0.00005  -0.00005   2.06489
   R17        2.06770  -0.00000   0.00000  -0.00002  -0.00002   2.06768
   R18        2.06400   0.00000   0.00000   0.00000   0.00000   2.06400
   R19        2.05699  -0.00000   0.00000  -0.00002  -0.00002   2.05697
   R20        2.05958   0.00000   0.00000  -0.00003  -0.00003   2.05956
    A1        2.09553   0.00001   0.00000  -0.00044  -0.00044   2.09509
    A2        2.05676  -0.00000   0.00000  -0.00056  -0.00056   2.05620
    A3        2.12623  -0.00000   0.00000   0.00092   0.00092   2.12715
    A4        2.11574  -0.00000   0.00000  -0.00026  -0.00026   2.11548
    A5        2.12044   0.00001   0.00000  -0.00005  -0.00005   2.12039
    A6        2.04701  -0.00001   0.00000   0.00030   0.00030   2.04731
    A7        1.96759  -0.00000   0.00000  -0.00003  -0.00003   1.96756
    A8        2.07937  -0.00000   0.00000   0.00069   0.00068   2.08006
    A9        2.06988   0.00000   0.00000   0.00107   0.00107   2.07095
   A10        1.70825   0.00000   0.00000  -0.00086  -0.00086   1.70739
   A11        1.67218  -0.00000   0.00000  -0.00311  -0.00311   1.66907
   A12        1.89007  -0.00000   0.00000   0.00099   0.00099   1.89106
   A13        1.90416   0.00000   0.00000  -0.00025  -0.00025   1.90390
   A14        1.90787  -0.00000   0.00000  -0.00035  -0.00035   1.90752
   A15        1.94170   0.00000   0.00000   0.00077   0.00077   1.94247
   A16        1.90731  -0.00000   0.00000  -0.00045  -0.00045   1.90686
   A17        1.90130  -0.00000   0.00000   0.00025   0.00025   1.90155
   A18        1.90123   0.00000   0.00000   0.00001   0.00001   1.90124
   A19        1.95303  -0.00000   0.00000   0.00028   0.00028   1.95331
   A20        1.80207   0.00000   0.00000  -0.00051  -0.00051   1.80156
   A21        1.92140   0.00000   0.00000   0.00028   0.00028   1.92168
   A22        1.94521   0.00000   0.00000   0.00031   0.00031   1.94553
   A23        1.94708  -0.00000   0.00000  -0.00030  -0.00030   1.94678
   A24        1.88900   0.00000   0.00000  -0.00007  -0.00007   1.88894
   A25        1.94523   0.00000   0.00000   0.00003   0.00003   1.94526
   A26        1.94697  -0.00000   0.00000  -0.00016  -0.00016   1.94681
   A27        1.94548  -0.00000   0.00000  -0.00024  -0.00024   1.94524
   A28        1.88155   0.00000   0.00000   0.00023   0.00023   1.88178
   A29        1.88019   0.00000   0.00000   0.00013   0.00013   1.88032
   A30        1.86049   0.00000   0.00000   0.00005   0.00005   1.86054
   A31        1.92441   0.00000   0.00000  -0.00035  -0.00035   1.92406
   A32        1.88788  -0.00000   0.00000   0.00012   0.00012   1.88800
   A33        1.98499   0.00000   0.00000  -0.00004  -0.00004   1.98495
   A34        1.88317   0.00000   0.00000   0.00008   0.00008   1.88325
   A35        1.88453  -0.00000   0.00000   0.00003   0.00003   1.88455
   A36        1.89627  -0.00000   0.00000   0.00017   0.00017   1.89645
    D1        3.06697  -0.00000   0.00000  -0.00014  -0.00014   3.06682
    D2       -0.07537   0.00000   0.00000  -0.00003  -0.00003  -0.07540
    D3        0.02707  -0.00000   0.00000   0.00075   0.00075   0.02781
    D4       -3.11528   0.00000   0.00000   0.00086   0.00086  -3.11441
    D5       -1.73153   0.00000   0.00000   0.00649   0.00650  -1.72504
    D6        2.56530   0.00000   0.00000   0.00720   0.00720   2.57250
    D7        0.20047  -0.00000   0.00000   0.00308   0.00308   0.20355
    D8        1.30422   0.00000   0.00000   0.00548   0.00548   1.30970
    D9       -0.68213  -0.00000   0.00000   0.00618   0.00618  -0.67595
   D10       -3.04696  -0.00000   0.00000   0.00206   0.00206  -3.04490
   D11       -3.12470   0.00000   0.00000  -0.00009  -0.00009  -3.12478
   D12       -1.02051   0.00000   0.00000   0.00011   0.00011  -1.02040
   D13        1.05707  -0.00000   0.00000  -0.00010  -0.00010   1.05696
   D14        0.12049   0.00000   0.00000   0.00091   0.00091   0.12139
   D15        2.22467   0.00000   0.00000   0.00111   0.00111   2.22578
   D16       -1.98094  -0.00000   0.00000   0.00089   0.00089  -1.98005
   D17        1.41554  -0.00000   0.00000  -0.00018  -0.00018   1.41537
   D18       -2.81219  -0.00000   0.00000  -0.00021  -0.00021  -2.81239
   D19       -0.70401  -0.00000   0.00000   0.00007   0.00007  -0.70394
   D20       -1.72677   0.00000   0.00000  -0.00006  -0.00006  -1.72683
   D21        0.32868   0.00000   0.00000  -0.00009  -0.00009   0.32859
   D22        2.43686  -0.00000   0.00000   0.00018   0.00018   2.43705
   D23        2.02225   0.00000   0.00000   0.00451   0.00451   2.02676
   D24       -0.07172   0.00000   0.00000   0.00431   0.00431  -0.06741
   D25       -2.08519   0.00000   0.00000   0.00453   0.00453  -2.08066
   D26       -2.05791   0.00000   0.00000   0.00478   0.00478  -2.05314
   D27        2.13131   0.00000   0.00000   0.00457   0.00457   2.13588
   D28        0.11784  -0.00000   0.00000   0.00479   0.00479   0.12262
   D29       -0.14808  -0.00000   0.00000   0.00508   0.00508  -0.14300
   D30       -2.24204  -0.00000   0.00000   0.00488   0.00488  -2.23716
   D31        2.02767  -0.00000   0.00000   0.00510   0.00510   2.03276
   D32       -3.06571   0.00000   0.00000  -0.00007  -0.00007  -3.06578
   D33       -1.05771   0.00000   0.00000  -0.00034  -0.00034  -1.05805
   D34        1.05607  -0.00000   0.00000  -0.00041  -0.00041   1.05566
   D35       -0.96598  -0.00000   0.00000   0.00026   0.00026  -0.96572
   D36        1.04202   0.00000   0.00000  -0.00001  -0.00001   1.04201
   D37       -3.12738  -0.00000   0.00000  -0.00008  -0.00008  -3.12746
   D38        1.11318  -0.00000   0.00000  -0.00014  -0.00014   1.11305
   D39        3.12118   0.00000   0.00000  -0.00040  -0.00040   3.12077
   D40       -1.04822  -0.00000   0.00000  -0.00048  -0.00048  -1.04870
         Item               Value     Threshold  Converged?
 Maximum Force            0.003265     0.000450     NO 
 RMS     Force            0.000333     0.000300     NO 
 Maximum Displacement     0.020685     0.001800     NO 
 RMS     Displacement     0.005927     0.001200     NO 
 Predicted change in Energy= 2.489920D-05
 GradGradGradGradGradGradGradGradGradGradGradGradGradGradGradGradGradGrad

                          Input orientation:                          
 ---------------------------------------------------------------------
 Center     Atomic      Atomic             Coordinates (Angstroms)
 Number     Number       Type             X           Y           Z
 ---------------------------------------------------------------------
      1          6           0       -0.692046   -0.552126   -0.143006
      2          6           0       -1.888684    0.165838    0.149451
      3          8           0       -2.977449   -0.168929   -0.345869
      4          6           0        0.526202   -0.104530    0.352397
      5          6           0        1.701556    2.263888   -0.503920
      6          1           0        2.206271    2.839816   -1.278665
      7          1           0        0.729075    2.710356   -0.305174
      8          1           0        2.298646    2.284373    0.405956
      9          7           0        1.510653    0.872915   -0.915211
     10          1           0        0.940995    0.808028   -1.751437
     11          1           0        2.396097    0.413893   -1.098206
     12         17           0        1.791976   -1.302627    0.773534
     13          1           0        0.526124    0.669197    1.106060
     14          6           0       -0.783559   -1.708260   -1.101342
     15          1           0        0.184111   -2.191509   -1.236688
     16          1           0       -1.489196   -2.465264   -0.750624
     17          1           0       -1.135345   -1.385189   -2.085757
     18          6           0       -1.885805    1.370949    1.079854
     19          1           0       -1.556187    2.262676    0.542151
     20          1           0       -2.906496    1.541840    1.417231
     21          1           0       -1.245620    1.249066    1.953426
 ---------------------------------------------------------------------
                    Distance matrix (angstroms):
                    1          2          3          4          5
     1  C    0.000000
     2  C    1.425814   0.000000
     3  O    2.326169   1.242103   0.000000
     4  C    1.389206   2.438434   3.573135   0.000000
     5  C    3.713425   4.209339   5.276047   2.779233   0.000000
     6  H    4.603828   5.094932   6.065773   3.761936   1.089339
     7  H    3.562256   3.678847   4.693640   2.897781   1.088372
     8  H    4.158284   4.699757   5.866951   2.975110   1.088490
     9  N    2.734763   3.631660   4.642484   1.879195   1.463014
    10  H    2.665312   3.468842   4.276011   2.330436   2.062591
    11  H    3.373755   4.469623   5.457169   2.422709   2.063503
    12  Cl   2.752028   4.011624   5.028494   1.793036   3.789472
    13  H    2.129726   2.645708   3.884016   1.080121   2.552786
    14  C    1.504469   2.509587   2.784499   2.529977   4.723418
    15  H    2.156703   3.431464   3.857441   2.645317   4.763419
    16  H    2.159802   2.809346   2.766203   3.294169   5.710223
    17  H    2.159812   2.823005   2.810666   3.216430   4.885282
    18  C    2.572676   1.522482   2.365502   2.919590   4.021795
    19  H    3.023127   2.159051   2.953180   3.158483   3.421572
    20  H    3.423860   2.129927   2.457699   3.953203   5.044434
    21  H    2.818824   2.200282   3.208847   2.744972   3.969164
                    6          7          8          9         10
     6  H    0.000000
     7  H    1.773853   0.000000
     8  H    1.776232   1.775027   0.000000
     9  N    2.117706   2.087869   2.087732   0.000000
    10  H    2.439795   2.399050   2.945701   1.013901   0.000000
    11  H    2.440021   2.946456   2.402227   1.014002   1.642977
    12  Cl   4.641443   4.289219   3.641208   2.768391   3.399193
    13  H    3.636123   2.489799   2.498153   2.257506   2.890792
    14  C    5.445688   4.737733   5.264319   3.458399   3.119041
    15  H    5.422649   5.019262   5.215655   3.354663   3.136090
    16  H    6.486846   5.648557   6.184212   4.491061   4.197844
    17  H    5.446876   4.839424   5.609511   3.670221   3.038611
    18  C    4.946237   3.248062   4.335678   3.970421   4.040283
    19  H    4.219544   2.478063   3.857299   3.668903   3.689508
    20  H    5.923933   4.189210   5.354206   5.039737   5.038067
    21  H    4.989234   3.337074   4.003542   3.995949   4.324559
                   11         12         13         14         15
    11  H    0.000000
    12  Cl   2.610520   0.000000
    13  H    2.901856   2.366652   0.000000
    14  C    3.822795   3.211398   3.498599   0.000000
    15  H    3.420553   2.723295   3.713365   1.090061   0.000000
    16  H    4.848284   3.800114   4.163368   1.092694   1.763847
    17  H    4.084487   4.092868   4.143510   1.094167   1.764096
    18  C    4.898426   4.557182   2.512079   3.931169   4.726735
    19  H    4.661472   4.896439   2.682012   4.366505   5.102223
    20  H    5.976385   5.530006   3.555448   4.627442   5.525670
    21  H    4.824114   4.138873   2.047768   4.276784   4.904948
                   16         17         18         19         20
    16  H    0.000000
    17  H    1.753383   0.000000
    18  C    4.269013   4.263868   0.000000
    19  H    4.901956   4.515521   1.092223   0.000000
    20  H    4.771290   4.896467   1.088502   1.763152   0.000000
    21  H    4.600811   4.823532   1.089872   1.765093   1.769669
                   21
    21  H    0.000000
 Stoichiometry    C6H12ClNO
 Framework group  C1[X(C6H12ClNO)]
 Deg. of freedom    57
 Full point group                 C1      NOp   1
 Largest Abelian subgroup         C1      NOp   1
 Largest concise Abelian subgroup C1      NOp   1
                         Standard orientation:                         
 ---------------------------------------------------------------------
 Center     Atomic      Atomic             Coordinates (Angstroms)
 Number     Number       Type             X           Y           Z
 ---------------------------------------------------------------------
      1          6           0        0.693345   -0.550782    0.140946
      2          6           0        1.888823    0.169481   -0.150602
      3          8           0        2.978141   -0.164199    0.344236
      4          6           0       -0.525635   -0.104479   -0.353822
      5          6           0       -1.704744    2.260920    0.505671
      6          1           0       -2.210350    2.835014    1.281196
      7          1           0       -0.732985    2.709205    0.307482
      8          1           0       -2.301899    2.281655   -0.404156
      9          7           0       -1.511601    0.869711    0.915113
     10          1           0       -0.941809    0.804627    1.751233
     11          1           0       -2.396303    0.409032    1.097531
     12         17           0       -1.789507   -1.304040   -0.776501
     13          1           0       -0.526822    0.670244   -1.106460
     14          6           0        0.786743   -1.708036    1.097746
     15          1           0       -0.180148   -2.193011    1.232486
     16          1           0        1.493576   -2.463446    0.746002
     17          1           0        1.138048   -1.385706    2.082576
     18          6           0        1.883982    1.375817   -1.079409
     19          1           0        1.552959    2.266304   -0.540514
     20          1           0        2.904386    1.548786   -1.416595
     21          1           0        1.243961    1.254067   -1.953119
 ---------------------------------------------------------------------
 Rotational constants (GHZ):           1.5589795           0.9273834           0.7277460
 Standard basis: def2TZVP (5D, 7F)
 There are   402 symmetry adapted cartesian basis functions of A   symmetry.
 There are   357 symmetry adapted basis functions of A   symmetry.
   357 basis functions,   573 primitive gaussians,   402 cartesian basis functions
    40 alpha electrons       40 beta electrons
       nuclear repulsion energy       549.0281994418 Hartrees.
 NAtoms=   21 NActive=   21 NUniq=   21 SFac= 1.00D+00 NAtFMM=   60 NAOKFM=F Big=F
 Integral buffers will be    131072 words long.
 Raffenetti 2 integral format.
 Two-electron integral symmetry is turned on.
 Nuclear repulsion after empirical dispersion term =      549.0148043333 Hartrees.
 ------------------------------------------------------------------------------
 Polarizable Continuum Model (PCM)
 =================================
 Model                : PCM.
 Atomic radii         : UFF (Universal Force Field).
 Polarization charges : Total charges.
 Charge compensation  : None.
 Solution method      : Matrix inversion.
 Cavity type          : Scaled VdW (van der Waals Surface) (Alpha=1.100).
 Cavity algorithm     : GePol (No added spheres)
                        Default sphere list used, NSphG=   21.
                        Lebedev-Laikov grids with approx.  5.0 points / Ang**2.
                        Smoothing algorithm: York/Karplus (Gamma=1.0000).
                        Polarization charges: spherical gaussians, with
                                              point-specific exponents (IZeta= 3).
                        Self-potential: point-specific (ISelfS= 7).
                        Self-field    : sphere-specific E.n sum rule (ISelfD= 2).
 1st derivatives      : Analytical E(r).r(x)/FMM algorithm (CHGder, D1EAlg=3).
                        Cavity 1st derivative terms included.
 Solvent              : Water, Eps=  78.355300 Eps(inf)=   1.777849
 ------------------------------------------------------------------------------
 One-electron integrals computed using PRISM.
   1 Symmetry operations used in ECPInt.
 ECPInt:  NShTT=   11175 NPrTT=   33918 LenC2=   10809 LenP2D=   25382.
 LDataN:  DoStor=T MaxTD1= 6 Len=  172
 NBasis=   357 RedAO= T EigKep=  9.18D-05  NBF=   357
 NBsUse=   357 1.00D-06 EigRej= -1.00D+00 NBFU=   357
 Initial guess from the checkpoint file:  "/beegfs/scratch/user/q/tla25/Gau-64880.chk"
 B after Tr=    -0.000000   -0.000000   -0.000000
         Rot=    1.000000   -0.000361   -0.000286   -0.000645 Ang=  -0.09 deg.
 ExpMin= 9.52D-02 ExpMax= 6.95D+04 ExpMxC= 2.37D+03 IAcc=2 IRadAn=         4 AccDes= 0.00D+00
 Harris functional with IExCor= 4639 and IRadAn=       4 diagonalized for initial guess.
 HarFok:  IExCor= 4639 AccDes= 0.00D+00 IRadAn=         4 IDoV= 1 UseB2=F ITyADJ=14
 ICtDFT=  3500011 ScaDFX=  1.000000  1.000000  1.000000  1.000000
 FoFCou: FMM=F IPFlag=           0 FMFlag=      100000 FMFlg1=           0
         NFxFlg=           0 DoJE=T BraDBF=F KetDBF=T FulRan=T
         wScrn=  0.000000 ICntrl=       500 IOpCl=  0 I1Cent=   200000004 NGrid=           0
         NMat0=    1 NMatS0=      1 NMatT0=    0 NMatD0=    1 NMtDS0=    0 NMtDT0=    0
 Petite list used in FoFCou.
 Requested convergence on RMS density matrix=1.00D-08 within 128 cycles.
 Requested convergence on MAX density matrix=1.00D-06.
 Requested convergence on             energy=1.00D-06.
 No special actions if energy rises.
 Inv3:  Mode=1 IEnd=     7747347.
 Iteration    1 A*A^-1 deviation from unit magnitude is 3.77D-15 for   1593.
 Iteration    1 A*A^-1 deviation from orthogonality  is 2.78D-15 for   1575     11.
 Iteration    1 A^-1*A deviation from unit magnitude is 3.77D-15 for   1597.
 Iteration    1 A^-1*A deviation from orthogonality  is 1.60D-15 for   1577   1481.
 Error on total polarization charges =  0.01301
 SCF Done:  E(RwB97XD) =  -826.031559369     A.U. after   10 cycles
            NFock= 10  Conv=0.85D-08     -V/T= 2.0030
   1 Symmetry operations used in ECPInt.
 ECPInt:  NShTT=   11175 NPrTT=   33918 LenC2=   10809 LenP2D=   25382.
 LDataN:  DoStor=T MaxTD1= 7 Len=  274
 D1PCM: PCM CHGder 1st derivatives, ID1Alg=3 FixD1E=F DoIter=F DoCFld=F I1PDM=0.
 Calling FoFJK, ICntrl=      2127 FMM=F ISym2X=0 I1Cent= 0 IOpClX= 0 NMat=1 NMatS=1 NMatT=0.
 ***** Axes restored to original set *****
 -------------------------------------------------------------------
 Center     Atomic                   Forces (Hartrees/Bohr)
 Number     Number              X              Y              Z
 -------------------------------------------------------------------
      1        6           0.000004780   -0.000006802   -0.000004865
      2        6           0.000004896   -0.000005363   -0.000008233
      3        8           0.000004239   -0.000004600   -0.000002781
      4        6           0.001405105    0.001393584   -0.001807207
      5        6           0.000004664    0.000000854    0.000011333
      6        1          -0.000000499    0.000006006    0.000006227
      7        1          -0.000001206    0.000000764    0.000003308
      8        1          -0.000004152    0.000004948    0.000006045
      9        7          -0.001406354   -0.001391973    0.001812138
     10        1          -0.000002739    0.000016378    0.000007952
     11        1          -0.000000562   -0.000004000   -0.000006779
     12       17           0.000007508    0.000005820    0.000007448
     13        1          -0.000013322    0.000004960   -0.000002911
     14        6           0.000011376   -0.000003691   -0.000004852
     15        1           0.000003068    0.000001318    0.000001406
     16        1           0.000005884    0.000001224   -0.000005097
     17        1           0.000006173   -0.000001298   -0.000002352
     18        6          -0.000015415   -0.000002898   -0.000005110
     19        1          -0.000004738   -0.000002706   -0.000000659
     20        1          -0.000003309   -0.000007948   -0.000006973
     21        1          -0.000005397   -0.000004577    0.000001962
 -------------------------------------------------------------------
 Cartesian Forces:  Max     0.001812138 RMS     0.000477822

 GradGradGradGradGradGradGradGradGradGradGradGradGradGradGradGradGradGrad
 Berny optimization.
 FormGI is forming the generalized inverse of G from B-inverse, IUseBI=4.
 Internal  Forces:  Max     0.002678919 RMS     0.000273455
 Search for a saddle point.
 Step number   2 out of a maximum of   70
 All quantities printed in internal units (Hartrees-Bohrs-Radians)
 Swapping is turned off.
 Update second derivatives using D2CorX and points    1    2
 ITU=  0  0
     Eigenvalues ---   -0.03889  -0.00098   0.00012   0.00044   0.00201
     Eigenvalues ---    0.00850   0.01255   0.01606   0.02183   0.03468
     Eigenvalues ---    0.03975   0.04439   0.04705   0.04835   0.05234
     Eigenvalues ---    0.05425   0.05660   0.05726   0.05749   0.07023
     Eigenvalues ---    0.08460   0.09796   0.11727   0.11752   0.11959
     Eigenvalues ---    0.13187   0.13253   0.13423   0.14459   0.14541
     Eigenvalues ---    0.14891   0.16144   0.17656   0.18125   0.19568
     Eigenvalues ---    0.21543   0.22995   0.23821   0.28361   0.32789
     Eigenvalues ---    0.33146   0.33989   0.34243   0.34292   0.34535
     Eigenvalues ---    0.34592   0.34813   0.34869   0.35023   0.35704
     Eigenvalues ---    0.36453   0.37567   0.44958   0.45222   0.45315
     Eigenvalues ---    0.51601   0.71789
 Eigenvectors required to have negative eigenvalues:
                          R6        D6        D9        A11       D5
   1                    0.87464   0.21988   0.21027  -0.17085   0.12691
                          R7        R2        D8        A10       R1
   1                   -0.12198  -0.12121   0.11730  -0.08919   0.08457
 RFO step:  Lambda0=1.405625406D-04 Lambda=-9.87854565D-04.
 Linear search not attempted -- option 19 set.
 Maximum step size (   0.010) exceeded in Quadratic search.
    -- Step size scaled by   0.219
 Iteration  1 RMS(Cart)=  0.00652516 RMS(Int)=  0.00001579
 Iteration  2 RMS(Cart)=  0.00002141 RMS(Int)=  0.00000054
 Iteration  3 RMS(Cart)=  0.00000000 RMS(Int)=  0.00000054
 Variable       Old X    -DE/DX   Delta X   Delta X   Delta X     New X
                                 (Linear)    (Quad)   (Total)
    R1        2.69440   0.00000   0.00000   0.00103   0.00103   2.69543
    R2        2.62522   0.00000   0.00000  -0.00122  -0.00122   2.62400
    R3        2.84303  -0.00000   0.00000  -0.00012  -0.00012   2.84291
    R4        2.34724  -0.00000   0.00000  -0.00051  -0.00051   2.34672
    R5        2.87707   0.00000   0.00000  -0.00027  -0.00027   2.87681
    R6        3.55116  -0.00268   0.00000   0.00837   0.00837   3.55953
    R7        3.38835   0.00000   0.00000  -0.00218  -0.00218   3.38617
    R8        2.04113   0.00000   0.00000  -0.00006  -0.00006   2.04107
    R9        2.05855   0.00000   0.00000   0.00012   0.00012   2.05867
   R10        2.05672  -0.00000   0.00000   0.00004   0.00004   2.05677
   R11        2.05695   0.00000   0.00000   0.00009   0.00009   2.05704
   R12        2.76470   0.00000   0.00000  -0.00029  -0.00029   2.76441
   R13        1.91599  -0.00000   0.00000  -0.00010  -0.00010   1.91589
   R14        1.91619   0.00000   0.00000  -0.00009  -0.00009   1.91610
   R15        2.05992  -0.00000   0.00000  -0.00011  -0.00011   2.05980
   R16        2.06489  -0.00000   0.00000  -0.00006  -0.00006   2.06484
   R17        2.06768  -0.00000   0.00000  -0.00001  -0.00001   2.06766
   R18        2.06400   0.00000   0.00000   0.00001   0.00001   2.06401
   R19        2.05697  -0.00000   0.00000  -0.00001  -0.00001   2.05696
   R20        2.05956   0.00000   0.00000  -0.00002  -0.00002   2.05954
    A1        2.09509   0.00002   0.00000  -0.00045  -0.00045   2.09464
    A2        2.05620  -0.00001   0.00000  -0.00058  -0.00058   2.05562
    A3        2.12715  -0.00001   0.00000   0.00095   0.00095   2.12810
    A4        2.11548  -0.00001   0.00000  -0.00027  -0.00027   2.11522
    A5        2.12039   0.00002   0.00000  -0.00003  -0.00003   2.12035
    A6        2.04731  -0.00001   0.00000   0.00030   0.00030   2.04761
    A7        1.96756   0.00000   0.00000  -0.00000  -0.00000   1.96756
    A8        2.08006  -0.00000   0.00000   0.00070   0.00070   2.08075
    A9        2.07095   0.00000   0.00000   0.00106   0.00106   2.07201
   A10        1.70739  -0.00000   0.00000  -0.00089  -0.00089   1.70650
   A11        1.66907  -0.00000   0.00000  -0.00311  -0.00311   1.66596
   A12        1.89106   0.00000   0.00000   0.00096   0.00096   1.89202
   A13        1.90390  -0.00000   0.00000  -0.00025  -0.00025   1.90365
   A14        1.90752  -0.00000   0.00000  -0.00036  -0.00036   1.90716
   A15        1.94247   0.00000   0.00000   0.00076   0.00076   1.94324
   A16        1.90686  -0.00000   0.00000  -0.00045  -0.00045   1.90641
   A17        1.90155   0.00000   0.00000   0.00028   0.00028   1.90184
   A18        1.90124   0.00000   0.00000  -0.00000  -0.00000   1.90124
   A19        1.95331   0.00000   0.00000   0.00039   0.00039   1.95370
   A20        1.80156  -0.00000   0.00000  -0.00050  -0.00050   1.80106
   A21        1.92168  -0.00000   0.00000   0.00015   0.00015   1.92183
   A22        1.94553  -0.00000   0.00000   0.00034   0.00034   1.94587
   A23        1.94678  -0.00000   0.00000  -0.00034  -0.00034   1.94643
   A24        1.88894   0.00000   0.00000  -0.00006  -0.00006   1.88888
   A25        1.94526   0.00000   0.00000   0.00004   0.00004   1.94530
   A26        1.94681  -0.00000   0.00000  -0.00023  -0.00023   1.94658
   A27        1.94524   0.00000   0.00000  -0.00020  -0.00020   1.94504
   A28        1.88178   0.00000   0.00000   0.00024   0.00024   1.88202
   A29        1.88032   0.00000   0.00000   0.00014   0.00014   1.88046
   A30        1.86054  -0.00000   0.00000   0.00003   0.00003   1.86056
   A31        1.92406   0.00000   0.00000  -0.00033  -0.00033   1.92373
   A32        1.88800  -0.00000   0.00000   0.00010   0.00010   1.88810
   A33        1.98495   0.00000   0.00000  -0.00006  -0.00006   1.98489
   A34        1.88325   0.00000   0.00000   0.00010   0.00010   1.88335
   A35        1.88455  -0.00000   0.00000   0.00003   0.00003   1.88458
   A36        1.89645   0.00000   0.00000   0.00018   0.00018   1.89663
    D1        3.06682  -0.00000   0.00000  -0.00018  -0.00018   3.06664
    D2       -0.07540  -0.00000   0.00000  -0.00011  -0.00011  -0.07552
    D3        0.02781  -0.00000   0.00000   0.00063   0.00063   0.02844
    D4       -3.11441  -0.00000   0.00000   0.00069   0.00069  -3.11372
    D5       -1.72504   0.00000   0.00000   0.00640   0.00640  -1.71864
    D6        2.57250   0.00000   0.00000   0.00710   0.00710   2.57960
    D7        0.20355   0.00000   0.00000   0.00301   0.00301   0.20656
    D8        1.30970   0.00000   0.00000   0.00546   0.00546   1.31516
    D9       -0.67595   0.00000   0.00000   0.00616   0.00616  -0.66979
   D10       -3.04490   0.00000   0.00000   0.00207   0.00207  -3.04283
   D11       -3.12478   0.00000   0.00000   0.00052   0.00052  -3.12427
   D12       -1.02040   0.00000   0.00000   0.00069   0.00069  -1.01970
   D13        1.05696   0.00000   0.00000   0.00044   0.00044   1.05741
   D14        0.12139   0.00000   0.00000   0.00143   0.00143   0.12282
   D15        2.22578   0.00000   0.00000   0.00161   0.00161   2.22738
   D16       -1.98005  -0.00000   0.00000   0.00136   0.00136  -1.97869
   D17        1.41537   0.00000   0.00000  -0.00023  -0.00023   1.41514
   D18       -2.81239   0.00000   0.00000  -0.00024  -0.00024  -2.81264
   D19       -0.70394  -0.00000   0.00000   0.00002   0.00002  -0.70392
   D20       -1.72683  -0.00000   0.00000  -0.00017  -0.00017  -1.72700
   D21        0.32859  -0.00000   0.00000  -0.00018  -0.00018   0.32841
   D22        2.43705  -0.00000   0.00000   0.00008   0.00008   2.43713
   D23        2.02676   0.00001   0.00000   0.00627   0.00627   2.03303
   D24       -0.06741   0.00001   0.00000   0.00596   0.00597  -0.06144
   D25       -2.08066   0.00001   0.00000   0.00622   0.00622  -2.07444
   D26       -2.05314   0.00001   0.00000   0.00655   0.00655  -2.04659
   D27        2.13588   0.00001   0.00000   0.00624   0.00624   2.14212
   D28        0.12262   0.00001   0.00000   0.00649   0.00649   0.12912
   D29       -0.14300   0.00001   0.00000   0.00683   0.00683  -0.13616
   D30       -2.23716   0.00001   0.00000   0.00652   0.00652  -2.23064
   D31        2.03276   0.00001   0.00000   0.00678   0.00678   2.03954
   D32       -3.06578  -0.00000   0.00000  -0.00007  -0.00007  -3.06585
   D33       -1.05805   0.00000   0.00000  -0.00023  -0.00023  -1.05828
   D34        1.05566  -0.00000   0.00000  -0.00030  -0.00030   1.05536
   D35       -0.96572  -0.00000   0.00000   0.00028   0.00028  -0.96543
[...]
 0.14505522,0.05789399,-0.15265940,0.14912062,-0.00141684,-0.00136537,0
 .00170809,0.00217079,0.00008712,0.00028566,-0.00117131,-0.00042475,-0.
 00058759,-0.00733092,0.00559223,-0.00437047,-0.00587523,0.00682846,-0.
 00418124,0.00062138,-0.00029394,0.00071438,-0.00030659,0.00022114,-0.0
 0023409,-0.00137731,-0.00127832,-0.00015280,-0.13407327,0.06476883,-0.
 10309712,0.12383534,-0.06151203,0.10278198,-0.00054594,-0.00044713,-0.
 00063090,-0.00021005,0.00017880,-0.00004493,0.00010832,-0.00007956,-0.
 00001810,-0.00073282,0.00317808,0.00338701,0.01129636,-0.02010776,-0.0
 2191064,0.00049679,0.00007015,0.00035648,-0.00377083,-0.00387226,-0.00
 182107,0.00055999,0.00058611,-0.00026036,-0.11006001,0.09586720,0.0896
 4037,-0.00963729,0.01743200,0.02425736,0.11285905,-0.00178839,-0.00015
 548,-0.00192160,0.00132662,-0.00036685,0.00011776,-0.00087800,-0.00035
 905,-0.00038909,0.00063617,0.01195424,0.00555739,0.00799346,-0.0145854
 9,-0.01610160,0.00059114,-0.00007547,0.00026179,-0.00377491,-0.0011557
 4,-0.00021537,0.00018498,0.00123720,0.00036372,0.08275264,-0.18983829,
 -0.15685570,0.00550470,-0.01088631,-0.01427018,-0.09156993,0.20690919,
 -0.00023090,0.00096368,0.00102428,0.00041218,-0.00016760,-0.00005281,-
 0.00023207,0.00005040,-0.00000706,0.00400891,-0.00604467,-0.00863415,0
 .00466579,-0.00270859,-0.00651764,0.00000352,0.00047623,0.00093689,-0.
 00172804,-0.00104583,0.00025385,0.00011260,-0.00010405,-0.00006766,0.0
 9290339,-0.18790016,-0.22987010,-0.00762325,0.01263868,0.01110207,-0.0
 9246886,0.18180461,0.23187819,-0.04403579,0.02090958,-0.00932491,0.014
 62196,-0.00119591,-0.01278591,-0.01109335,-0.00360787,0.00046211,-0.08
 213043,0.03467180,-0.00112973,-0.00107389,-0.00060706,-0.00157195,0.00
 105291,0.00043574,0.00052982,0.00006414,-0.00000819,0.00012234,0.00089
 054,-0.00032492,0.00043981,0.00026353,0.01047196,-0.00654121,0.0010810
 5,0.00020536,-0.00049173,-0.00029990,0.00021367,-0.00038602,0.13382617
 ,0.00305445,0.00523515,0.00038046,-0.00321163,0.00008873,0.00121002,0.
 00145976,0.00066268,0.00037086,0.04008973,-0.06100291,-0.00379282,0.00
 102618,-0.00095616,0.00304648,-0.00051992,-0.00050516,-0.00018707,0.00
 016810,-0.00014667,-0.00029189,0.00002618,-0.00077119,0.00041399,0.010
 89794,-0.02108810,0.01382368,-0.00256229,-0.00212212,0.00242151,0.0003
 5269,0.00022782,-0.00011127,-0.06748052,0.08825932,-0.00800739,0.00546
 190,0.00343180,-0.00205292,-0.00181446,-0.00070610,-0.00030835,0.00086
 417,0.00043605,-0.01893862,-0.00344891,-0.02999730,-0.00134888,0.00029
 089,-0.00218325,0.00069464,0.00054694,0.00042262,-0.00002384,0.0002280
 0,0.00012552,0.00019359,0.00011418,0.00001902,-0.00967317,0.02212881,-
 0.01219159,0.00255844,0.00276893,-0.00238092,-0.00054979,-0.00037874,0
 .00078072,0.03330659,-0.02373662,0.03887129,0.00606130,-0.01950757,-0.
 01608786,0.00216535,-0.00271904,0.00052066,-0.00080072,0.00040877,-0.0
 0032119,-0.04573452,0.02595841,0.01812132,0.00034439,0.00105985,0.0009
 1369,0.00003375,-0.00031473,-0.00040812,-0.00014891,-0.00058235,-0.000
 18076,-0.00009297,0.00002602,-0.00003640,-0.00386412,-0.00034644,0.011
 35232,-0.00008436,-0.00014303,0.00020359,-0.00028529,-0.00115613,0.000
 73674,-0.01177873,0.02026287,0.00791716,0.06290825,-0.00109565,-0.0076
 5338,-0.00907889,0.00242490,-0.00250808,0.00233589,-0.00141674,0.00002
 781,-0.00078871,0.02138224,-0.20835545,-0.15712020,0.00113804,0.002403
 10,0.00103178,0.00018513,-0.00035779,-0.00040560,0.00044526,-0.0007330
 0,-0.00063640,-0.00012539,-0.00003254,-0.00006727,-0.00712321,0.003959
 61,0.01362570,0.00014401,0.00029059,-0.00009240,-0.00092755,-0.0019407
 2,0.00174018,0.00788541,-0.00888440,-0.00366037,-0.02496443,0.22116915
 ,0.00609167,-0.00605956,-0.00103555,-0.00169333,0.00107657,-0.00223765
 ,0.00118665,0.00047564,0.00095186,0.01176869,-0.16040371,-0.17574137,-
 0.00027572,-0.00038047,-0.00100300,0.00025713,0.00046595,0.00034990,0.
 00032948,0.00058288,0.00024719,0.00012590,0.00012586,0.00007300,0.0086
 8507,-0.00210227,-0.01701182,0.00023111,-0.00014228,-0.00061989,0.0004
 3072,0.00242836,-0.00128317,-0.00695964,0.00955005,0.00592447,-0.02063
 477,0.15620158,0.18820886,-0.08537761,0.00614508,0.00302236,-0.0037606
 0,0.02579363,0.01717239,0.00218006,0.00281528,0.00280255,0.00469920,-0
 .02273247,-0.01684015,0.00010331,0.00017323,-0.00007693,-0.00002048,0.
 00002846,0.00003507,0.00002188,0.00007004,0.00000540,-0.00000516,0.000
 00095,-0.00002529,0.00019717,0.00046591,0.00053553,-0.00007884,0.00000
 123,-0.00000958,-0.00022570,-0.00051271,0.00022721,-0.00008930,-0.0007
 9535,-0.00089956,-0.00361273,-0.00138750,-0.00132424,0.58170973,0.0073
 1013,-0.16534225,-0.06900878,0.00857539,-0.01353857,-0.01258115,-0.005
 64989,-0.00082750,0.00217967,-0.00617472,-0.01662633,-0.00748640,-0.00
 016175,0.00010626,-0.00104546,0.00022583,0.00030816,0.00021802,-0.0000
 8311,0.00002089,0.00013336,0.00003677,-0.00001630,0.00003035,0.0026803
 9,0.00232052,-0.00120813,-0.00017377,-0.00037806,0.00010819,-0.0001006
 5,0.00011707,-0.00004912,-0.00035534,0.00028662,0.00048416,0.00080378,
 0.00327260,-0.00182861,-0.00384623,0.50286252,0.00105842,-0.07048307,-
 0.11088370,0.00630232,-0.00845572,-0.00225071,-0.00313927,0.00173635,-
 0.00366752,-0.00536573,-0.00660810,-0.01143441,0.00031421,0.00031492,-
 0.00018721,0.00009464,0.00003765,-0.00003949,0.00006272,0.00001953,-0.
 00010800,-0.00000680,0.00000429,-0.00001167,0.00014381,-0.00017682,0.0
 0219923,-0.00020964,-0.00023253,0.00026616,-0.00010923,-0.00027826,0.0
 0018566,0.00446252,-0.00344019,-0.00174372,-0.00206881,-0.00327799,0.0
 0327333,0.00167585,-0.02506446,0.51846507,0.00092818,-0.00006784,-0.00
 045456,-0.00025700,-0.00051113,-0.00050460,-0.00011039,0.00115088,0.00
 075211,-0.00172323,-0.00038596,-0.00019913,-0.00003375,0.00000915,-0.0
 0017810,0.00005576,0.00005149,0.00003633,-0.00002028,0.00000051,0.0000
 1359,0.00001092,-0.00000184,-0.00000043,0.00046399,0.00035026,-0.00024
 051,-0.00002218,-0.00002475,0.00004560,0.00009914,0.00013576,-0.000049
 45,-0.00110562,-0.00228371,-0.00252872,0.00015421,0.00018878,0.0000001
 7,-0.29112138,0.06534340,0.04835851,0.31707275,0.02527671,-0.00719708,
 -0.00383884,-0.00106670,-0.00388710,-0.00333354,-0.00064280,0.00059416
 ,-0.00002709,0.00309199,0.00135002,-0.00003813,-0.00008557,-0.00001390
 ,0.00019096,-0.00004149,-0.00003755,-0.00003675,0.00003304,0.00002111,
 -0.00000637,-0.00001316,-0.00000944,-0.00000163,-0.00074513,-0.0006448
 1,0.00058555,0.00004676,0.00007596,-0.00004804,-0.00021524,-0.00063407
 ,0.00021515,-0.00118704,0.00047475,-0.00015910,0.00015621,0.00007020,0
 .00022922,0.06333942,-0.06440990,-0.01262303,-0.07001602,0.06985175,0.
 01754908,-0.00292803,-0.00414450,-0.00132036,-0.00305795,-0.00215230,-
 0.00054358,0.00053339,0.00073478,0.00206483,0.00044751,0.00042231,0.00
 002776,-0.00002315,0.00019198,-0.00005897,-0.00005904,-0.00003111,0.00
 000625,-0.00000236,-0.00002042,-0.00002423,-0.00001428,0.00000304,-0.0
 0084652,-0.00055586,0.00051359,0.00001847,0.00006080,-0.00006876,-0.00
 002246,-0.00002951,0.00002286,-0.00136470,-0.00030175,-0.00095791,0.00
 010773,0.00017457,0.00005506,0.04585205,-0.01264541,-0.05573953,-0.049
 67672,0.01704931,0.05701034,0.00162833,0.00060433,-0.00345752,-0.00066
 757,0.00116465,-0.00002811,0.00083587,-0.00017923,-0.00014756,0.000007
 92,-0.00037713,-0.00016619,0.00005072,0.00003960,0.00001703,-0.0000173
 2,-0.00001417,0.00000607,-0.00001561,-0.00000517,-0.00001158,-0.000006
 05,-0.00000299,-0.00000395,-0.00003462,0.00008959,0.00018350,-0.000015
 09,0.00002721,-0.00005097,0.00010661,0.00009860,-0.00009300,0.00037163
 ,-0.00018682,-0.00010151,-0.00012599,-0.00007554,-0.00004304,-0.099477
 13,-0.09000817,0.05402521,-0.01244335,-0.02396586,0.01407578,0.1030081
 0,-0.01101009,-0.02284449,0.00409380,-0.00492489,-0.00012811,-0.001317
 37,0.00213488,0.00178958,0.00145970,0.00568810,-0.00182023,-0.00031962
 ,0.00005327,-0.00000746,0.00042765,-0.00014941,-0.00014489,-0.00004235
 ,-0.00000033,0.00000588,-0.00002762,-0.00001011,0.00000090,-0.00002541
 ,-0.00123085,-0.00082115,0.00071375,0.00000361,0.00011295,-0.00017186,
 -0.00004764,-0.00018089,-0.00001201,-0.00149881,0.00040581,0.00020818,
 -0.00033088,0.00033019,-0.00064393,-0.09123111,-0.19930169,0.09234886,
 0.00362661,0.00734466,-0.00444654,0.10116343,0.22005006,-0.01040367,-0
 .01877009,0.00969791,-0.00127227,0.00026482,0.00021243,0.00073678,0.00
 003377,0.00016804,0.00223524,-0.00225435,-0.00015588,-0.00003795,-0.00
 003672,0.00014682,-0.00006349,-0.00003781,-0.00000865,0.00000202,0.000
 00402,0.00001293,-0.00000952,0.00000247,-0.00000742,-0.00035858,-0.000
 26320,-0.00014008,0.00005943,0.00007292,-0.00010928,-0.00004446,-0.000
 00645,-0.00000191,-0.00070375,0.00052461,0.00008652,-0.00022356,0.0003
 4990,-0.00073294,0.05297103,0.09035562,-0.09646170,0.00148734,0.003173
 02,-0.00309087,-0.05768862,-0.09517485,0.10475749,0.00086994,-0.002530
 39,0.00166231,-0.00039569,0.00046855,0.00111465,0.00026223,-0.00025835
 ,0.00001494,-0.00016081,0.00036868,0.00001987,-0.00001969,-0.00002197,
 0.00004521,-0.00000508,-0.00000576,-0.00000631,0.00000591,0.00000397,0
 .00000475,0.00001347,0.00001617,-0.00000802,0.00015730,0.00008726,-0.0
 0039807,0.00002645,-0.00000293,0.00000238,-0.00002409,0.00010416,-0.00
 003065,-0.00036747,-0.00059649,-0.00049763,-0.00009471,-0.00008877,-0.
 00009700,-0.10032312,0.02065378,-0.10480039,-0.01186086,0.00465952,-0.
 02674840,0.00674384,-0.00256471,0.01333075,0.10496875,-0.01385409,0.00
 143028,-0.02696609,-0.00246710,0.00032043,-0.00013930,0.00112333,0.000
 35192,0.00040189,0.00344508,-0.00027091,-0.00395408,0.00017925,0.00012
 857,0.00020235,-0.00006258,-0.00008291,-0.00004015,0.00002364,0.000011
 57,-0.00006052,-0.00000997,0.00000338,-0.00001891,-0.00074853,-0.00052
 007,0.00135454,-0.00009165,-0.00004331,-0.00001703,-0.00009202,-0.0002
 3418,0.00005909,0.00058906,0.00002159,0.00011853,-0.00108843,-0.001162
 13,0.00046657,0.01954708,-0.05066475,0.03775269,0.00236229,-0.00240383
 ,0.00635333,0.01196226,-0.00471053,0.02151562,-0.02058897,0.05837689,-
 0.00749327,-0.00390928,-0.01484685,-0.00479507,-0.00109062,0.00007599,
 0.00193648,0.00196815,0.00133097,0.00418071,0.00050451,-0.00320822,0.0
 0009677,0.00004526,0.00035503,-0.00010734,-0.00011624,-0.00006469,0.00
 002661,0.00000149,-0.00004812,-0.00001824,0.00000510,-0.00001686,-0.00
 113545,-0.00081684,0.00096449,0.00006265,0.00010851,-0.00012145,-0.000
 01934,-0.00003845,0.00005192,0.00024372,0.00020580,0.00019908,-0.00076
 407,-0.00067558,0.00030609,-0.10532368,0.03916420,-0.24563627,0.003015
 82,-0.00115301,0.00711717,-0.00698512,0.00355053,-0.01367028,0.1168789
 9,-0.03753222,0.26723235,0.00615288,0.02217270,0.01470745,-0.09541144,
 0.02860799,0.01713249,-0.00056613,-0.03594753,-0.02589375,-0.00449041,
 0.00060418,0.00066640,0.00003118,0.00002769,-0.00025286,0.00004437,0.0
 0006146,0.00004822,-0.00000834,0.00003305,0.00001900,0.00001012,-0.000
 00038,-0.00000617,0.00082803,0.00045357,-0.00024292,-0.00012392,-0.000
 01831,0.00002400,0.00006220,0.00003740,-0.00004551,-0.00001591,0.00033
 474,0.00011272,-0.00216824,0.00180082,0.00087279,-0.00511538,0.0008908
 0,-0.00057971,-0.00014008,0.00139609,0.00090236,0.00009865,0.00006974,
 -0.00012695,0.00026153,-0.00035653,0.00001339,0.59938053,0.00741068,-0
 .00690352,-0.01112827,0.02262406,-0.14659421,-0.03828455,-0.01715671,-
 0.01912972,-0.02833195,-0.00194370,-0.00443002,0.00088744,-0.00019826,
 0.00005122,-0.00039899,0.00016099,0.00014828,0.00001503,0.00001614,-0.
 00003763,0.00002372,0.00001201,0.00001520,0.00004993,0.00082841,0.0017
 0589,-0.00114355,-0.00009609,0.00013137,0.00020141,-0.00013049,-0.0000
 8000,0.00026283,-0.00013022,-0.00019162,0.00000780,0.00150237,0.000149
 77,-0.00066632,0.00097668,0.00206916,-0.00137170,-0.00003397,-0.000198
 16,-0.00028233,-0.00035556,0.00002695,0.00027009,0.00026656,-0.0004778
 8,-0.00016448,0.00708937,0.48398670,0.00333635,-0.00886188,0.00606131,
 0.01471338,-0.03733219,-0.10811238,-0.01394781,-0.03068431,0.00013975,
 -0.00128337,-0.00112478,-0.00250773,-0.00002868,0.00003315,-0.00008081
 ,0.00000887,0.00003086,0.00000441,0.00001662,0.00001351,0.00001438,-0.
 00002247,-0.00001675,-0.00000142,0.00002071,0.00029770,0.00017190,0.00
 020662,0.00002745,-0.00016020,-0.00006595,-0.00005419,0.00010704,0.001
 67447,-0.00036418,-0.00023145,-0.00067846,-0.00041554,0.00126430,-0.00
 050595,-0.00149239,0.00365005,0.00004116,0.00004235,0.00026026,0.00045
 766,-0.00054721,-0.00066270,-0.00051621,0.00049416,-0.00000589,0.01192
 967,-0.03344640,0.51489657,-0.00176662,0.00013716,0.00032860,0.0010136
 9,0.00351309,-0.00362438,0.00040458,-0.00167104,-0.00122057,0.00064057
 ,0.00243422,-0.00084493,-0.00005485,-0.00016212,0.00013007,-0.00003753
 ,-0.00002510,-0.00000476,-0.00001355,-0.00000586,-0.00001223,0.0000367
 5,0.00000177,-0.00002119,-0.00021964,-0.00057786,0.00035777,-0.0010456
 3,0.00022131,0.00109365,0.00018631,0.00005105,-0.00007369,0.00030326,-
 0.00023681,0.00001322,-0.00127246,0.00090270,-0.00002511,0.00022335,-0
 .00013998,0.00020546,0.00002189,-0.00004348,-0.00001055,-0.00002799,0.
 00004477,-0.00000039,-0.00005216,0.00008835,0.00008589,-0.10898955,-0.
 09886124,0.05796157,0.11703024,0.00266954,0.00078228,-0.00138476,-0.01
 568727,-0.01465406,0.01566138,0.00056838,-0.00281971,-0.00481974,-0.00
 172796,-0.00176531,0.00008083,-0.00000049,0.00005989,-0.00024921,0.000
 05292,0.00007532,0.00007141,-0.00002686,0.00002734,0.00001335,-0.00000
 653,-0.00002817,-0.00002145,0.00106360,0.00053969,-0.00041100,0.000629
 55,0.00006740,-0.00064324,-0.00002908,0.00003979,-0.00006781,0.0001452
 9,0.00014358,0.00003042,0.00078212,-0.00016934,0.00045894,0.00005984,0
 .00024417,-0.00062141,0.00001488,-0.00000793,-0.00005811,-0.00005960,0
 .00004287,0.00007947,0.00012973,-0.00013561,0.00001238,-0.09945404,-0.
 20445500,0.08883880,0.10848087,0.21788093,0.00108172,0.00054901,-0.000
 13343,-0.01151212,-0.01319384,0.01011021,0.00001236,-0.00158452,-0.004
 04841,-0.00025659,-0.00064259,0.00128793,-0.00007835,0.00008474,-0.000
 07994,0.00003192,0.00002929,0.00000232,-0.00001269,-0.00002057,0.00000
 714,-0.00002109,-0.00001208,0.00001056,0.00032713,0.00017242,-0.000257
 56,0.00095516,-0.00020143,-0.00098480,-0.00010232,0.00002297,0.0000216
 9,0.00002221,-0.00014233,-0.00005076,0.00014803,0.00007936,-0.00063335
 ,-0.00015323,0.00026768,-0.00046869,0.00000339,0.00003810,0.00000054,-
 0.00004742,0.00002823,0.00004477,0.00008571,-0.00010643,-0.00003918,0.
 05657722,0.08556020,-0.09005146,-0.06302491,-0.09397996,0.09838165,0.0
 0027637,0.00054928,0.00041408,-0.00589362,-0.00126694,-0.00121920,0.00
 335281,-0.00212341,-0.00099886,0.00073802,-0.00002453,-0.00038176,0.00
 006830,0.00004116,0.00009662,-0.00003897,-0.00003927,-0.00001042,0.000
 01101,0.00000989,-0.00001475,-0.00000815,-0.00000278,-0.00001160,-0.00
 016273,-0.00011458,0.00020632,0.00009157,0.00002441,-0.00014236,-0.000
 01119,-0.00003639,-0.00000903,-0.00020245,0.00015245,0.00003874,0.0001
 7230,0.00025464,0.00036519,-0.00016596,-0.00004198,-0.00014186,0.00001
 553,0.00007368,0.00004505,0.00001050,0.00010017,0.00003772,0.00003487,
 0.00003922,0.00006734,-0.31026803,0.06333964,0.01621812,-0.01237272,0.
 00383468,0.00016002,0.33263475,-0.00080179,-0.00343660,-0.00298684,0.0
 2982913,-0.00873908,-0.00172443,-0.00076349,0.00382442,0.00264312,-0.0
 0160811,-0.00096469,-0.00039853,0.00000960,0.00002404,-0.00013465,0.00
 003166,0.00003902,0.00002497,0.00000869,0.00001153,0.00001124,-0.00000
 343,-0.00000844,-0.00000068,0.00041125,0.00026849,-0.00012718,0.000103
 69,-0.00006705,-0.00010126,-0.00002287,0.00000566,-0.00000646,0.000173
 66,0.00012341,-0.00000040,-0.00025188,0.00013614,0.00035719,0.00139055
 ,-0.00008627,-0.00013573,0.00005997,-0.00038714,-0.00027555,-0.0000359
 8,-0.00002079,0.00004087,-0.00003774,0.00001677,-0.00004576,0.05851300
 ,-0.05922332,-0.00267495,-0.02423133,0.00668149,0.00013772,-0.06651281
 ,0.06363214,-0.00087887,-0.00293849,-0.00110725,0.01939894,-0.00496521
 ,-0.00307672,-0.00021598,0.00265116,0.00157202,-0.00104383,-0.00056637
 ,-0.00006136,-0.00002784,-0.00000840,-0.00010031,0.00003369,0.00003337
 ,0.00001061,-0.00000366,0.00000069,0.00000526,0.00000881,0.00000643,0.
 00000799,0.00022421,0.00031763,-0.00020614,-0.00011935,-0.00001700,0.0
 0014093,0.00000098,-0.00001232,0.00004098,-0.00008758,0.00015126,0.000
 06326,0.00025155,0.00034134,-0.00011359,0.00079906,-0.00032394,0.00035
 465,0.00005120,-0.00023906,-0.00013529,-0.00000807,-0.00009686,-0.0000
 1930,-0.00001856,0.00006194,0.00000838,0.01322074,-0.00234078,-0.04671
 946,0.01372915,-0.00400959,-0.00126115,-0.01613926,0.00569314,0.046993
 88,-0.00166020,0.00046675,-0.00064555,-0.00026229,-0.00288132,0.003897
 90,0.00062260,-0.00156765,-0.00079372,0.00002916,0.00124045,0.00176053
 ,-0.00000042,-0.00002346,0.00002911,0.00000006,-0.00000816,0.00000231,
 -0.00000074,-0.00001136,-0.00000325,0.00000525,0.00000304,0.00000107,0
 .00007098,-0.00027586,-0.00028887,0.00005507,-0.00001828,-0.00000797,0
 .00002833,0.00008611,-0.00009984,-0.00028233,0.00004843,0.00009529,-0.
 00177581,0.00045288,0.00070828,0.00023871,0.00021534,-0.00028224,0.000
 01576,-0.00005093,-0.00003284,-0.00003143,0.00011426,0.00007289,-0.000
 04059,0.00000031,0.00003323,-0.07957207,0.01467932,-0.08953631,0.00599
 206,-0.00143957,0.01580383,-0.00828222,0.00373823,-0.02917535,0.084850
 10,0.00166995,-0.00058689,0.00164008,-0.01239927,0.00878757,-0.0247818
 7,-0.00054145,-0.00623698,-0.00016384,-0.00083158,-0.00046821,-0.00055
 088,-0.00001214,0.00001351,-0.00014349,0.00004281,0.00004261,0.0000216
 6,-0.00000423,0.00000232,0.00001228,-0.00000150,-0.00000730,0.00000272
 ,0.00035897,0.00033274,-0.00003320,0.00008028,-0.00005891,-0.00001046,
 -0.00002285,0.00000159,0.00000672,0.00069438,-0.00026111,-0.00005433,0
 .00044452,-0.00001232,-0.00019165,-0.00030202,-0.00041634,0.00055474,0
 .00003122,0.00004831,0.00006097,0.00011656,-0.00012960,-0.00014373,-0.
 00006228,0.00004471,-0.00002346,0.01368419,-0.04656345,0.02723679,0.01
 007953,-0.00254962,0.02291403,0.00174347,-0.00182972,0.00626103,-0.014
 76855,0.04984709,0.00112572,-0.00120749,0.00138150,-0.00754702,0.00653
 118,-0.01255101,0.00041501,-0.00359842,-0.00068440,-0.00150963,-0.0011
 4306,0.00018928,-0.00000360,0.00003214,-0.00016701,0.00004596,0.000046
 42,0.00002375,0.00001013,0.00000827,0.00000209,0.00000531,0.00000632,0
 .00000674,0.00044138,0.00050975,-0.00032745,-0.00006983,-0.00000066,0.
 00006933,-0.00000452,-0.00000515,0.00002835,0.00008355,0.00026937,0.00
 008264,0.00113119,0.00033864,-0.00024174,0.00006013,-0.00020739,0.0002
 3847,0.00002699,-0.00001909,0.00000878,0.00006741,-0.00000507,-0.00006
 590,-0.00003832,0.00005401,0.00001635,-0.08907860,0.03028089,-0.278036
 46,-0.00504267,0.00101928,-0.01185807,0.00141990,-0.00029583,0.0036026
 2,0.09846151,-0.03261411,0.29828216\\-0.00000658,0.00000163,-0.0000100
 1,0.00001055,-0.00000534,0.00000853,-0.00000571,0.00000857,-0.00000108
 ,0.00000529,0.00000233,0.00000030,0.00000155,-0.00000217,0.00000846,-0
 .00000069,0.00000499,0.00000992,0.00000360,-0.00000577,0.00001291,0.00
 000058,-0.00000414,-0.00000007,0.00000311,-0.00000173,-0.00000058,-0.0
 0000187,0.00000873,0.00000948,-0.00000335,0.00000770,-0.00000378,-0.00
 000141,-0.00000963,-0.00001161,0.00000122,-0.00000761,0.00000084,-0.00
 000235,0.00000524,-0.00001320,-0.00000520,0.00000540,-0.00001875,-0.00
 000527,0.00000314,-0.00001855,-0.00000519,0.00001363,-0.00001211,-0.00
 000625,-0.00000431,0.00000766,0.00000782,-0.00000526,0.00001000,0.0000
 0316,-0.00000164,0.00001366,0.00000701,-0.00001376,0.00000798\\\@


 THERE IS NO SUBJECT, HOWEVER COMPLEX,
 WHICH, IF STUDIED WITH PATIENCE AND INTELLIGIENCE
 WILL NOT BECOME
 MORE COMPLEX
                        QUOTED BY D. GORDON ROHMAN
 Job cpu time:       0 days  2 hours 54 minutes  6.3 seconds.
 Elapsed time:       0 days  0 hours 10 minutes 57.8 seconds.
 File lengths (MBytes):  RWF=    324 Int=      0 D2E=      0 Chk=     21 Scr=      1
 Normal termination of Gaussian 16 at Wed Feb 24 06:07:42 2021.
