 Entering Gaussian System, Link 0=g16
 Initial command:
 /apps/gaussian/16/A.03/g16/l1.exe "/beegfs/scratch/user/q/tla25/Gau-115379.inp" -scrdir="/beegfs/scratch/user/q/tla25/"
 Entering Link 1 = /apps/gaussian/16/A.03/g16/l1.exe PID=    115380.
  
 Copyright (c) 1988,1990,1992,1993,1995,1998,2003,2009,2016,
            Gaussian, Inc.  All Rights Reserved.
  
 This is part of the Gaussian(R) 16 program.  It is based on
 the Gaussian(R) 09 system (copyright 2009, Gaussian, Inc.),
 the Gaussian(R) 03 system (copyright 2003, Gaussian, Inc.),
 the Gaussian(R) 98 system (copyright 1998, Gaussian, Inc.),
 the Gaussian(R) 94 system (copyright 1995, Gaussian, Inc.),
 the Gaussian 92(TM) system (copyright 1992, Gaussian, Inc.),
 the Gaussian 90(TM) system (copyright 1990, Gaussian, Inc.),
 the Gaussian 88(TM) system (copyright 1988, Gaussian, Inc.),
 the Gaussian 86(TM) system (copyright 1986, Carnegie Mellon
 University), and the Gaussian 82(TM) system (copyright 1983,
 Carnegie Mellon University). Gaussian is a federally registered
 trademark of Gaussian, Inc.
  
 This software contains proprietary and confidential information,
 including trade secrets, belonging to Gaussian, Inc.
  
 This software is provided under written license and may be
 used, copied, transmitted, or stored only in accord with that
 written license.
  
 The following legend is applicable only to US Government
 contracts under FAR:
  
                    RESTRICTED RIGHTS LEGEND
  
 Use, reproduction and disclosure by the US Government is
 subject to restrictions as set forth in subparagraphs (a)
 and (c) of the Commercial Computer Software - Restricted
 Rights clause in FAR 52.227-19.
  
 Gaussian, Inc.
 340 Quinnipiac St., Bldg. 40, Wallingford CT 06492
  
  
 ---------------------------------------------------------------
 Warning -- This program may not be used in any manner that
 competes with the business of Gaussian, Inc. or will provide
 assistance to any competitor of Gaussian, Inc.  The licensee
 of this program is prohibited from giving any competitor of
 Gaussian, Inc. access to this program.  By using this program,
 the user acknowledges that Gaussian, Inc. is engaged in the
 business of creating and licensing software in the field of
 computational chemistry and represents and warrants to the
 licensee that it is not a competitor of Gaussian, Inc. and that
 it will not use this program in any manner prohibited above.
 ---------------------------------------------------------------
  

 Cite this work as:
 Gaussian 16, Revision A.03,
 M. J. Frisch, G. W. Trucks, H. B. Schlegel, G. E. Scuseria, 
 M. A. Robb, J. R. Cheeseman, G. Scalmani, V. Barone, 
 G. A. Petersson, H. Nakatsuji, X. Li, M. Caricato, A. V. Marenich, 
 J. Bloino, B. G. Janesko, R. Gomperts, B. Mennucci, H. P. Hratchian, 
 J. V. Ortiz, A. F. Izmaylov, J. L. Sonnenberg, D. Williams-Young, 
 F. Ding, F. Lipparini, F. Egidi, J. Goings, B. Peng, A. Petrone, 
 T. Henderson, D. Ranasinghe, V. G. Zakrzewski, J. Gao, N. Rega, 
 G. Zheng, W. Liang, M. Hada, M. Ehara, K. Toyota, R. Fukuda, 
 J. Hasegawa, M. Ishida, T. Nakajima, Y. Honda, O. Kitao, H. Nakai, 
 T. Vreven, K. Throssell, J. A. Montgomery, Jr., J. E. Peralta, 
 F. Ogliaro, M. J. Bearpark, J. J. Heyd, E. N. Brothers, K. N. Kudin, 
 V. N. Staroverov, T. A. Keith, R. Kobayashi, J. Normand, 
 K. Raghavachari, A. P. Rendell, J. C. Burant, S. S. Iyengar, 
 J. Tomasi, M. Cossi, J. M. Millam, M. Klene, C. Adamo, R. Cammi, 
 J. W. Ochterski, R. L. Martin, K. Morokuma, O. Farkas, 
 J. B. Foresman, and D. J. Fox, Gaussian, Inc., Wallingford CT, 2016.
 
 ******************************************
 Gaussian 16:  ES64L-G16RevA.03 25-Dec-2016
                25-Feb-2021 
 ******************************************
 %nprocshared=16
 Will use up to   16 processors via shared memory.
 %mem=48GB
 ----------------------------------------------------------------------
 # wB97XD def2tzvp, opt=(ts, noeigen, calcfc, maxcycles=70, maxstep=8),
  freq=noraman, scrf=(iefpcm, solvent=water)
 ----------------------------------------------------------------------
 1/5=1,6=70,8=8,10=4,11=1,18=20,26=3,38=1/1,3;
 2/9=110,12=2,17=6,18=5,40=1/2;
 3/5=44,7=101,11=2,25=1,30=1,70=2201,71=2,72=1,74=-58,140=1/1,2,3;
 4//1;
 5/5=2,38=5,53=1/2;
 8/6=4,10=90,11=11/1;
 11/6=1,8=1,9=11,15=111,16=1/1,2,10;
 10/6=1,13=1/2;
 6/7=2,8=2,9=2,10=2,28=1/1;
 7/10=1,18=20,25=1/1,2,3,16;
 1/5=1,6=70,8=8,10=4,11=1,18=20,26=3/3(2);
 2/9=110/2;
 99//99;
 2/9=110/2;
 3/5=44,7=101,11=2,25=1,30=1,70=2205,71=1,72=1,74=-58/1,2,3;
 4/5=5,16=3,69=1/1;
 5/5=2,38=5,53=1/2;
 7//1,2,3,16;
 1/5=1,6=70,8=8,11=1,18=20,26=3/3(-5);
 2/9=110/2;
 6/7=2,8=2,9=2,10=2,19=2,28=1/1;
 99/9=1/99;
 ------------------------
 1_iteration/TS-879-1.out
 ------------------------
 Symbolic Z-matrix:
 Charge =  0 Multiplicity = 1
 C                    -1.22218  -0.4876   -0.17538 
 C                     0.03934   0.21672  -0.27228 
 O                     0.08436   1.40869  -0.59117 
 C                    -2.38433   0.21463  -0.42102 
 C                    -3.59664   2.42898   0.83733 
 H                    -4.42184   2.33319   0.13331 
 H                    -3.95239   2.92712   1.739 
 H                    -2.8093    3.0296    0.38509 
 N                    -3.06821   1.09762   1.13071 
 H                    -2.26934   1.1372    1.75327 
 H                    -3.77054   0.50256   1.55541 
 Cl                   -3.83991  -0.6361   -0.91385 
 H                    -2.25113   1.13409  -0.97417 
 Cl                   -1.29666  -2.11249   0.47451 
 N                     1.16636  -0.51916  -0.00462 
 C                     2.5085   -0.12852  -0.01989 
 C                     2.95132   1.14717  -0.37238 
 C                     4.30992   1.4325   -0.35596 
 C                     5.24381   0.47379   0.00308 
 C                     4.80214  -0.79599   0.3516 
 C                     3.45242  -1.09527   0.34128 
 H                     1.00465  -1.4795    0.25078 
 H                     2.23429   1.89976  -0.65522 
 H                     4.63678   2.4276   -0.63221 
 H                     6.29997   0.70945   0.01099 
 H                     5.51286  -1.56222   0.63498 
 H                     3.12003  -2.08992   0.61576 
 
 Add virtual bond connecting atoms N9         and C4         Dist= 3.61D+00.

 GradGradGradGradGradGradGradGradGradGradGradGradGradGradGradGradGradGrad
 Berny optimization.
 Initialization pass.
                           ----------------------------
                           !    Initial Parameters    !
                           ! (Angstroms and Degrees)  !
 --------------------------                            --------------------------
 ! Name  Definition              Value          Derivative Info.                !
 --------------------------------------------------------------------------------
 ! R1    R(1,2)                  1.4481         calculate D2E/DX2 analytically  !
 ! R2    R(1,4)                  1.3799         calculate D2E/DX2 analytically  !
 ! R3    R(1,14)                 1.7516         calculate D2E/DX2 analytically  !
 ! R4    R(2,3)                  1.2347         calculate D2E/DX2 analytically  !
 ! R5    R(2,15)                 1.3723         calculate D2E/DX2 analytically  !
 ! R6    R(4,9)                  1.9119         calculate D2E/DX2 analytically  !
 ! R7    R(4,12)                 1.7565         calculate D2E/DX2 analytically  !
 ! R8    R(4,13)                 1.0813         calculate D2E/DX2 analytically  !
 ! R9    R(5,6)                  1.0889         calculate D2E/DX2 analytically  !
 ! R10   R(5,7)                  1.0898         calculate D2E/DX2 analytically  !
 ! R11   R(5,8)                  1.0887         calculate D2E/DX2 analytically  !
 ! R12   R(5,9)                  1.4621         calculate D2E/DX2 analytically  !
 ! R13   R(9,10)                 1.0136         calculate D2E/DX2 analytically  !
 ! R14   R(9,11)                 1.0138         calculate D2E/DX2 analytically  !
 ! R15   R(15,16)                1.3979         calculate D2E/DX2 analytically  !
 ! R16   R(15,22)                1.0068         calculate D2E/DX2 analytically  !
 ! R17   R(16,17)                1.3956         calculate D2E/DX2 analytically  !
 ! R18   R(16,21)                1.3986         calculate D2E/DX2 analytically  !
 ! R19   R(17,18)                1.3883         calculate D2E/DX2 analytically  !
 ! R20   R(17,23)                1.0773         calculate D2E/DX2 analytically  !
 ! R21   R(18,19)                1.3857         calculate D2E/DX2 analytically  !
 ! R22   R(18,24)                1.0832         calculate D2E/DX2 analytically  !
 ! R23   R(19,20)                1.3888         calculate D2E/DX2 analytically  !
 ! R24   R(19,25)                1.0822         calculate D2E/DX2 analytically  !
 ! R25   R(20,21)                1.3825         calculate D2E/DX2 analytically  !
 ! R26   R(20,26)                1.0828         calculate D2E/DX2 analytically  !
 ! R27   R(21,27)                1.084          calculate D2E/DX2 analytically  !
 ! A1    A(2,1,4)              118.3124         calculate D2E/DX2 analytically  !
 ! A2    A(2,1,14)             120.8684         calculate D2E/DX2 analytically  !
 ! A3    A(4,1,14)             120.1539         calculate D2E/DX2 analytically  !
 ! A4    A(1,2,3)              121.2383         calculate D2E/DX2 analytically  !
 ! A5    A(1,2,15)             116.2047         calculate D2E/DX2 analytically  !
 ! A6    A(3,2,15)             122.5535         calculate D2E/DX2 analytically  !
 ! A7    A(1,4,9)              113.0676         calculate D2E/DX2 analytically  !
 ! A8    A(1,4,12)             120.092          calculate D2E/DX2 analytically  !
 ! A9    A(1,4,13)             114.8391         calculate D2E/DX2 analytically  !
 ! A10   A(9,4,12)              98.9161         calculate D2E/DX2 analytically  !
 ! A11   A(9,4,13)              93.8154         calculate D2E/DX2 analytically  !
 ! A12   A(12,4,13)            111.7405         calculate D2E/DX2 analytically  !
 ! A13   A(6,5,7)              109.1318         calculate D2E/DX2 analytically  !
 ! A14   A(6,5,8)              109.1487         calculate D2E/DX2 analytically  !
 ! A15   A(6,5,9)              108.8751         calculate D2E/DX2 analytically  !
 ! A16   A(7,5,8)              109.123          calculate D2E/DX2 analytically  !
 ! A17   A(7,5,9)              111.6026         calculate D2E/DX2 analytically  !
 ! A18   A(8,5,9)              108.9254         calculate D2E/DX2 analytically  !
 ! A19   A(4,9,5)              112.7656         calculate D2E/DX2 analytically  !
 ! A20   A(4,9,10)             103.5695         calculate D2E/DX2 analytically  !
 ! A21   A(4,9,11)             108.4657         calculate D2E/DX2 analytically  !
 ! A22   A(5,9,10)             111.8723         calculate D2E/DX2 analytically  !
 ! A23   A(5,9,11)             111.6019         calculate D2E/DX2 analytically  !
 ! A24   A(10,9,11)            108.1581         calculate D2E/DX2 analytically  !
 ! A25   A(2,15,16)            129.5309         calculate D2E/DX2 analytically  !
 ! A26   A(2,15,22)            115.4073         calculate D2E/DX2 analytically  !
 ! A27   A(16,15,22)           115.0578         calculate D2E/DX2 analytically  !
 ! A28   A(15,16,17)           124.2515         calculate D2E/DX2 analytically  !
 ! A29   A(15,16,21)           116.8721         calculate D2E/DX2 analytically  !
 ! A30   A(17,16,21)           118.8762         calculate D2E/DX2 analytically  !
 ! A31   A(16,17,18)           119.6943         calculate D2E/DX2 analytically  !
 ! A32   A(16,17,23)           119.584          calculate D2E/DX2 analytically  !
 ! A33   A(18,17,23)           120.7217         calculate D2E/DX2 analytically  !
 ! A34   A(17,18,19)           121.358          calculate D2E/DX2 analytically  !
 ! A35   A(17,18,24)           118.7552         calculate D2E/DX2 analytically  !
 ! A36   A(19,18,24)           119.8868         calculate D2E/DX2 analytically  !
 ! A37   A(18,19,20)           118.8973         calculate D2E/DX2 analytically  !
 ! A38   A(18,19,25)           120.596          calculate D2E/DX2 analytically  !
 ! A39   A(20,19,25)           120.5066         calculate D2E/DX2 analytically  !
 ! A40   A(19,20,21)           120.4313         calculate D2E/DX2 analytically  !
 ! A41   A(19,20,26)           120.2581         calculate D2E/DX2 analytically  !
 ! A42   A(21,20,26)           119.3106         calculate D2E/DX2 analytically  !
 ! A43   A(16,21,20)           120.7428         calculate D2E/DX2 analytically  !
 ! A44   A(16,21,27)           119.5168         calculate D2E/DX2 analytically  !
 ! A45   A(20,21,27)           119.7404         calculate D2E/DX2 analytically  !
 ! D1    D(4,1,2,3)             -1.3775         calculate D2E/DX2 analytically  !
 ! D2    D(4,1,2,15)           179.2857         calculate D2E/DX2 analytically  !
 ! D3    D(14,1,2,3)          -172.043          calculate D2E/DX2 analytically  !
 ! D4    D(14,1,2,15)            8.6203         calculate D2E/DX2 analytically  !
 ! D5    D(2,1,4,9)            -86.8483         calculate D2E/DX2 analytically  !
 ! D6    D(2,1,4,12)           156.953          calculate D2E/DX2 analytically  !
 ! D7    D(2,1,4,13)            19.2228         calculate D2E/DX2 analytically  !
 ! D8    D(14,1,4,9)            83.8861         calculate D2E/DX2 analytically  !
 ! D9    D(14,1,4,12)          -32.3126         calculate D2E/DX2 analytically  !
 ! D10   D(14,1,4,13)         -170.0428         calculate D2E/DX2 analytically  !
 ! D11   D(1,2,15,16)          179.7304         calculate D2E/DX2 analytically  !
 ! D12   D(1,2,15,22)           -1.0473         calculate D2E/DX2 analytically  !
 ! D13   D(3,2,15,16)            0.4032         calculate D2E/DX2 analytically  !
 ! D14   D(3,2,15,22)          179.6255         calculate D2E/DX2 analytically  !
 ! D15   D(1,4,9,5)            140.2095         calculate D2E/DX2 analytically  !
 ! D16   D(1,4,9,10)            19.0847         calculate D2E/DX2 analytically  !
 ! D17   D(1,4,9,11)           -95.6608         calculate D2E/DX2 analytically  !
 ! D18   D(12,4,9,5)           -91.5881         calculate D2E/DX2 analytically  !
 ! D19   D(12,4,9,10)          147.287          calculate D2E/DX2 analytically  !
 ! D20   D(12,4,9,11)           32.5415         calculate D2E/DX2 analytically  !
 ! D21   D(13,4,9,5)            21.1319         calculate D2E/DX2 analytically  !
 ! D22   D(13,4,9,10)          -99.9929         calculate D2E/DX2 analytically  !
 ! D23   D(13,4,9,11)          145.2615         calculate D2E/DX2 analytically  !
 ! D24   D(6,5,9,4)             61.264          calculate D2E/DX2 analytically  !
 ! D25   D(6,5,9,10)           177.5371         calculate D2E/DX2 analytically  !
 ! D26   D(6,5,9,11)           -61.1215         calculate D2E/DX2 analytically  !
 ! D27   D(7,5,9,4)           -178.2108         calculate D2E/DX2 analytically  !
 ! D28   D(7,5,9,10)           -61.9377         calculate D2E/DX2 analytically  !
 ! D29   D(7,5,9,11)            59.4037         calculate D2E/DX2 analytically  !
 ! D30   D(8,5,9,4)            -57.6632         calculate D2E/DX2 analytically  !
 ! D31   D(8,5,9,10)            58.6098         calculate D2E/DX2 analytically  !
 ! D32   D(8,5,9,11)           179.9512         calculate D2E/DX2 analytically  !
 ! D33   D(2,15,16,17)          -2.1629         calculate D2E/DX2 analytically  !
 ! D34   D(2,15,16,21)         178.0224         calculate D2E/DX2 analytically  !
 ! D35   D(22,15,16,17)        178.6125         calculate D2E/DX2 analytically  !
 ! D36   D(22,15,16,21)         -1.2022         calculate D2E/DX2 analytically  !
 ! D37   D(15,16,17,18)       -179.9329         calculate D2E/DX2 analytically  !
 ! D38   D(15,16,17,23)          0.0144         calculate D2E/DX2 analytically  !
 ! D39   D(21,16,17,18)         -0.1217         calculate D2E/DX2 analytically  !
 ! D40   D(21,16,17,23)        179.8256         calculate D2E/DX2 analytically  !
 ! D41   D(15,16,21,20)        179.8916         calculate D2E/DX2 analytically  !
 ! D42   D(15,16,21,27)         -0.0995         calculate D2E/DX2 analytically  !
 ! D43   D(17,16,21,20)          0.0666         calculate D2E/DX2 analytically  !
 ! D44   D(17,16,21,27)       -179.9245         calculate D2E/DX2 analytically  !
 ! D45   D(16,17,18,19)          0.0769         calculate D2E/DX2 analytically  !
 ! D46   D(16,17,18,24)       -179.9935         calculate D2E/DX2 analytically  !
 ! D47   D(23,17,18,19)       -179.8698         calculate D2E/DX2 analytically  !
 ! D48   D(23,17,18,24)          0.0598         calculate D2E/DX2 analytically  !
 ! D49   D(17,18,19,20)          0.0258         calculate D2E/DX2 analytically  !
 ! D50   D(17,18,19,25)        179.9598         calculate D2E/DX2 analytically  !
 ! D51   D(24,18,19,20)       -179.903          calculate D2E/DX2 analytically  !
 ! D52   D(24,18,19,25)          0.0309         calculate D2E/DX2 analytically  !
 ! D53   D(18,19,20,21)         -0.0822         calculate D2E/DX2 analytically  !
 ! D54   D(18,19,20,26)        179.9487         calculate D2E/DX2 analytically  !
 ! D55   D(25,19,20,21)        179.9838         calculate D2E/DX2 analytically  !
 ! D56   D(25,19,20,26)          0.0147         calculate D2E/DX2 analytically  !
 ! D57   D(19,20,21,16)          0.0361         calculate D2E/DX2 analytically  !
 ! D58   D(19,20,21,27)       -179.9728         calculate D2E/DX2 analytically  !
 ! D59   D(26,20,21,16)       -179.9945         calculate D2E/DX2 analytically  !
 ! D60   D(26,20,21,27)         -0.0035         calculate D2E/DX2 analytically  !
 --------------------------------------------------------------------------------
 Trust Radius=8.00D-02 FncErr=1.00D-07 GrdErr=1.00D-06 EigMax=2.50D+02 EigMin=1.00D-04
 Number of steps in this run=     70 maximum allowed number of steps=    162.
 Search for a saddle point of order  1.
 GradGradGradGradGradGradGradGradGradGradGradGradGradGradGradGradGradGrad

                          Input orientation:                          
 ---------------------------------------------------------------------
 Center     Atomic      Atomic             Coordinates (Angstroms)
 Number     Number       Type             X           Y           Z
 ---------------------------------------------------------------------
      1          6           0       -1.222180   -0.487600   -0.175380
      2          6           0        0.039340    0.216720   -0.272280
      3          8           0        0.084360    1.408690   -0.591170
      4          6           0       -2.384330    0.214630   -0.421020
      5          6           0       -3.596640    2.428980    0.837330
      6          1           0       -4.421840    2.333190    0.133310
      7          1           0       -3.952390    2.927120    1.739000
      8          1           0       -2.809300    3.029600    0.385090
      9          7           0       -3.068210    1.097620    1.130710
     10          1           0       -2.269340    1.137200    1.753270
     11          1           0       -3.770540    0.502560    1.555410
     12         17           0       -3.839910   -0.636100   -0.913850
     13          1           0       -2.251130    1.134090   -0.974170
     14         17           0       -1.296660   -2.112490    0.474510
     15          7           0        1.166360   -0.519160   -0.004620
     16          6           0        2.508500   -0.128520   -0.019890
     17          6           0        2.951320    1.147170   -0.372380
     18          6           0        4.309920    1.432500   -0.355960
     19          6           0        5.243810    0.473790    0.003080
     20          6           0        4.802140   -0.795990    0.351600
     21          6           0        3.452420   -1.095270    0.341280
     22          1           0        1.004650   -1.479500    0.250780
     23          1           0        2.234290    1.899760   -0.655220
     24          1           0        4.636780    2.427600   -0.632210
     25          1           0        6.299970    0.709450    0.010990
     26          1           0        5.512860   -1.562220    0.634980
     27          1           0        3.120030   -2.089920    0.615760
 ---------------------------------------------------------------------
                    Distance matrix (angstroms):
                    1          2          3          4          5
     1  C    0.000000
     2  C    1.448064   0.000000
     3  O    2.340052   1.234711   0.000000
     4  C    1.379876   2.428231   2.747574   0.000000
     5  C    3.894879   4.398372   4.078157   2.820724   0.000000
     6  H    4.276677   4.954400   4.656760   2.991158   1.088933
     7  H    4.772757   5.227373   4.902109   3.805536   1.089821
     8  H    3.899202   4.056991   3.457412   2.958795   1.088655
     9  N    2.761634   3.521538   3.605597   1.911865   1.462132
    10  H    2.730606   3.206266   3.333168   2.364719   2.066245
    11  H    3.235767   4.235250   4.504346   2.431205   2.063244
    12  Cl   2.723949   4.023369   4.436799   1.756512   3.538436
    13  H    2.080068   2.565243   2.382563   1.081260   2.601667
    14  Cl   1.751620   2.787079   3.929580   2.720384   5.103577
    15  N    2.394844   1.372347   2.287219   3.649553   5.664502
    16  C    3.751145   2.505921   2.926744   4.921224   6.674456
    17  C    4.486578   3.058657   2.887165   5.416748   6.781019
    18  C    5.858628   4.441056   4.232168   6.804441   8.057953
    19  C    6.539507   5.218085   5.277035   7.644315   9.092431
    20  C    6.055183   4.909081   5.292152   7.298195   9.009765
    21  C    4.742160   3.707680   4.299198   6.030306   7.896559
    22  H    2.474722   2.020539   3.146022   3.847932   6.065651
    23  H    4.228111   2.792324   2.206230   4.922008   6.042146
    24  H    6.560068   5.114098   4.665232   7.364633   8.363537
    25  H    7.619082   6.286375   6.283736   8.709107  10.078815
    26  H    6.868206   5.826420   6.308594   8.163207   9.947543
    27  H    4.695543   3.949665   4.786674   6.056719   8.098346
                    6          7          8          9         10
     6  H    0.000000
     7  H    1.775212   0.000000
     8  H    1.774448   1.774888   0.000000
     9  N    2.086565   2.121052   2.086991   0.000000
    10  H    2.947528   2.456964   2.396800   1.013578   0.000000
    11  H    2.407855   2.438292   2.946110   1.013772   1.641803
    12  Cl   3.201854   4.443737   4.023277   2.789540   3.567185
    13  H    2.715941   3.670223   2.398354   2.258201   2.727503
    14  Cl   5.444928   5.835195   5.360706   3.724754   3.625165
    15  N    6.275580   6.412383   5.343355   4.672744   4.199731
    16  C    7.356161   7.360281   6.198123   5.824688   5.251085
    17  C    7.485042   7.435547   6.107540   6.204553   5.636823
    18  C    8.791715   8.653815   7.333701   7.533866   6.915397
    19  C    9.843735   9.674830   8.457581   8.411325   7.742784
    20  C    9.742752   9.613960   8.518819   8.132354   7.463761
    21  C    8.590783   8.541923   7.498374   6.924636   6.302077
    22  H    6.633038   6.797451   5.907304   4.899389   4.452371
    23  H    6.716674   6.712881   5.272247   5.652387   5.163817
    24  H    9.091399   8.924461   7.539324   8.015211   7.419578
    25  H   10.844755  10.630850   9.407542   9.442841   8.755089
    26  H   10.682891  10.533945   9.508186   8.997514   8.312646
    27  H    8.756510   8.743654   7.837069   6.979964   6.383850
                   11         12         13         14         15
    11  H    0.000000
    12  Cl   2.720037   0.000000
    13  H    3.017650   2.379377   0.000000
    14  Cl   3.758579   3.251983   3.681028   0.000000
    15  N    5.277366   5.089510   3.918227   2.972328   0.000000
    16  C    6.504320   6.431105   5.015866   4.319700   1.397917
    17  C    7.022485   7.042304   5.237157   5.421064   2.469410
    18  C    8.355355   8.426748   6.596864   6.685086   3.716771
    19  C    9.147079   9.197097   7.587169   7.049031   4.196619
    20  C    8.753641   8.735672   7.431789   6.240484   3.663663
    21  C    7.496554   7.413789   6.263460   4.858626   2.382776
    22  H    5.332266   5.053459   4.351030   2.397240   1.006793
    23  H    6.549583   6.587365   4.561466   5.462788   2.723037
    24  H    8.898005   9.017752   7.016652   7.552679   4.595767
    25  H   10.190349  10.270492   8.618130   8.117080   5.278606
    26  H    9.554686   9.525276   8.374903   6.833602   4.515432
    27  H    7.421849   7.272831   6.463086   4.419006   2.582438
                   16         17         18         19         20
    16  C    0.000000
    17  C    1.395609   0.000000
    18  C    2.407247   1.388336   0.000000
    19  C    2.800933   2.418661   1.385707   0.000000
    20  C    2.417500   2.779488   2.389370   1.388841   0.000000
    21  C    1.398583   2.406023   2.758817   2.405287   1.382541
    22  H    2.039601   3.328250   4.446649   4.674096   3.859829
    23  H    2.143071   1.077275   2.148518   3.394696   3.856761
    24  H    3.382050   2.132554   1.083225   2.142301   3.374427
    25  H    3.883091   3.398827   2.148896   1.082161   2.150781
    26  H    3.392717   3.862260   3.376000   2.148726   1.082837
    27  H    2.150607   3.388751   3.842853   3.385030   2.138581
                   21         22         23         24         25
    21  C    0.000000
    22  H    2.479395   0.000000
    23  H    3.383350   3.708402   0.000000
    24  H    3.842005   5.407168   2.459899   0.000000
    25  H    3.387425   5.734929   4.288406   2.476277   0.000000
    26  H    2.133006   4.525308   4.939529   4.276909   2.483826
    27  H    1.084044   2.231738   4.279892   4.926048   4.279514
                   26         27
    26  H    0.000000
    27  H    2.450402   0.000000
 Stoichiometry    C10H12Cl2N2O
 Framework group  C1[X(C10H12Cl2N2O)]
 Deg. of freedom    75
 Full point group                 C1      NOp   1
 Largest Abelian subgroup         C1      NOp   1
 Largest concise Abelian subgroup C1      NOp   1
                         Standard orientation:                         
 ---------------------------------------------------------------------
 Center     Atomic      Atomic             Coordinates (Angstroms)
 Number     Number       Type             X           Y           Z
 ---------------------------------------------------------------------
      1          6           0       -1.222180   -0.487601   -0.175378
      2          6           0        0.039339    0.216719   -0.272278
      3          8           0        0.084359    1.408689   -0.591168
      4          6           0       -2.384331    0.214628   -0.421018
      5          6           0       -3.596641    2.428978    0.837332
      6          1           0       -4.421841    2.333188    0.133312
      7          1           0       -3.952392    2.927118    1.739002
      8          1           0       -2.809302    3.029598    0.385092
      9          7           0       -3.068211    1.097618    1.130712
     10          1           0       -2.269341    1.137198    1.753272
     11          1           0       -3.770541    0.502558    1.555412
     12         17           0       -3.839910   -0.636102   -0.913848
     13          1           0       -2.251131    1.134088   -0.974168
     14         17           0       -1.296660   -2.112491    0.474512
     15          7           0        1.166360   -0.519160   -0.004618
     16          6           0        2.508499   -0.128520   -0.019888
     17          6           0        2.951319    1.147170   -0.372378
     18          6           0        4.309919    1.432501   -0.355958
     19          6           0        5.243809    0.473791    0.003082
     20          6           0        4.802140   -0.795989    0.351602
     21          6           0        3.452420   -1.095270    0.341282
     22          1           0        1.004650   -1.479500    0.250782
     23          1           0        2.234289    1.899760   -0.655218
     24          1           0        4.636779    2.427601   -0.632208
     25          1           0        6.299969    0.709451    0.010992
     26          1           0        5.512860   -1.562219    0.634982
     27          1           0        3.120030   -2.089920    0.615762
 ---------------------------------------------------------------------
 Rotational constants (GHZ):           1.0186939           0.2118263           0.1869810
 Standard basis: def2TZVP (5D, 7F)
 There are   624 symmetry adapted cartesian basis functions of A   symmetry.
 There are   549 symmetry adapted basis functions of A   symmetry.
   549 basis functions,   897 primitive gaussians,   624 cartesian basis functions
    64 alpha electrons       64 beta electrons
       nuclear repulsion energy      1172.9570573268 Hartrees.
 NAtoms=   27 NActive=   27 NUniq=   27 SFac= 1.00D+00 NAtFMM=   60 NAOKFM=F Big=F
 Integral buffers will be    131072 words long.
 Raffenetti 2 integral format.
 Two-electron integral symmetry is turned on.
 Nuclear repulsion after empirical dispersion term =     1172.9406468330 Hartrees.
 Force inversion solution in PCM.
 ------------------------------------------------------------------------------
 Polarizable Continuum Model (PCM)
 =================================
 Model                : PCM.
 Atomic radii         : UFF (Universal Force Field).
 Polarization charges : Total charges.
 Charge compensation  : None.
 Solution method      : Matrix inversion.
 Cavity type          : Scaled VdW (van der Waals Surface) (Alpha=1.100).
 Cavity algorithm     : GePol (No added spheres)
                        Default sphere list used, NSphG=   27.
                        Lebedev-Laikov grids with approx.  5.0 points / Ang**2.
                        Smoothing algorithm: York/Karplus (Gamma=1.0000).
                        Polarization charges: spherical gaussians, with
                                              point-specific exponents (IZeta= 3).
                        Self-potential: point-specific (ISelfS= 7).
                        Self-field    : sphere-specific E.n sum rule (ISelfD= 2).
 1st derivatives      : Analytical E(r).r(x)/FMM algorithm (CHGder, D1EAlg=3).
                        Cavity 1st derivative terms included.
 2nd derivatives      : Analytical E(r).r(xy)/FMM algorithm (CHGder, D2EAlg=3).
                        Cavity 2nd derivative terms included.
 Solvent              : Water, Eps=  78.355300 Eps(inf)=   1.777849
 ------------------------------------------------------------------------------
 One-electron integrals computed using PRISM.
   1 Symmetry operations used in ECPInt.
 ECPInt:  NShTT=   23653 NPrTT=   75085 LenC2=   20434 LenP2D=   46359.
 LDataN:  DoStor=T MaxTD1= 6 Len=  172
 NBasis=   549 RedAO= T EigKep=  8.06D-06  NBF=   549
 NBsUse=   549 1.00D-06 EigRej= -1.00D+00 NBFU=   549
 ExpMin= 9.52D-02 ExpMax= 6.95D+04 ExpMxC= 2.37D+03 IAcc=3 IRadAn=         5 AccDes= 0.00D+00
 Harris functional with IExCor= 4639 and IRadAn=       5 diagonalized for initial guess.
 HarFok:  IExCor= 4639 AccDes= 0.00D+00 IRadAn=         5 IDoV= 1 UseB2=F ITyADJ=14
 ICtDFT=  3500011 ScaDFX=  1.000000  1.000000  1.000000  1.000000
 FoFCou: FMM=F IPFlag=           0 FMFlag=      100000 FMFlg1=           0
         NFxFlg=           0 DoJE=T BraDBF=F KetDBF=T FulRan=T
         wScrn=  0.000000 ICntrl=       500 IOpCl=  0 I1Cent=   200000004 NGrid=           0
         NMat0=    1 NMatS0=      1 NMatT0=    0 NMatD0=    1 NMtDS0=    0 NMtDT0=    0
 Petite list used in FoFCou.
 Requested convergence on RMS density matrix=1.00D-08 within 128 cycles.
 Requested convergence on MAX density matrix=1.00D-06.
 Requested convergence on             energy=1.00D-06.
 No special actions if energy rises.
 Inv3:  Mode=1 IEnd=    15187500.
 Iteration    1 A*A^-1 deviation from unit magnitude is 5.55D-15 for   2248.
 Iteration    1 A*A^-1 deviation from orthogonality  is 2.35D-15 for   2228   2027.
 Iteration    1 A^-1*A deviation from unit magnitude is 5.55D-15 for   2248.
 Iteration    1 A^-1*A deviation from orthogonality  is 2.48D-15 for   1964   1088.
 Error on total polarization charges =  0.01653
 SCF Done:  E(RwB97XD) =  -1493.43891383     A.U. after   14 cycles
            NFock= 14  Conv=0.95D-08     -V/T= 2.0027
 DoSCS=F DFT=T ScalE2(SS,OS)=  1.000000  1.000000
 Range of M.O.s used for correlation:     1   549
 NBasis=   549 NAE=    64 NBE=    64 NFC=     0 NFV=     0
 NROrb=    549 NOA=    64 NOB=    64 NVA=   485 NVB=   485

 **** Warning!!: The largest alpha MO coefficient is  0.66843995D+02

   1 Symmetry operations used in ECPInt.
 ECPInt:  NShTT=   23653 NPrTT=   75085 LenC2=   20434 LenP2D=   46359.
 LDataN:  DoStor=T MaxTD1= 7 Len=  274
 Symmetrizing basis deriv contribution to polar:
 IMax=3 JMax=2 DiffMx= 0.00D+00
 G2DrvN: will do    28 centers at a time, making    1 passes.
 Calling FoFCou, ICntrl=  3107 FMM=F I1Cent=   0 AccDes= 0.00D+00.
 NEqPCM:  Using equilibrium solvation (IEInf=0, Eps=  78.3553, EpsInf=   1.7778)
 G2PCM: DoFxE=T DoFxN=T DoGrad=T DoDP/DQ/DG/TGxP=FFFF NFrqRd=   0 IEInf=0 SqF1=F DoCFld=F IF1Alg=4.
 End of G2Drv F.D. properties file   721 does not exist.
 End of G2Drv F.D. properties file   722 does not exist.
 End of G2Drv F.D. properties file   788 does not exist.
          IDoAtm=111111111111111111111111111
 NEqPCM:  Using equilibrium solvation (IEInf=0, Eps=  78.3553, EpsInf=   1.7778)
          Differentiating once with respect to nuclear coordinates.
 CalDSu exits because no D1Ps are significant.
          There are    84 degrees of freedom in the 1st order CPHF.  IDoFFX=6 NUNeed=     0.
     78 vectors produced by pass  0 Test12= 3.70D-14 1.19D-09 XBig12= 1.30D-01 1.52D-01.
 AX will form    78 AO Fock derivatives at one time.
     78 vectors produced by pass  1 Test12= 3.70D-14 1.19D-09 XBig12= 2.74D-02 3.23D-02.
     78 vectors produced by pass  2 Test12= 3.70D-14 1.19D-09 XBig12= 8.32D-04 4.03D-03.
     78 vectors produced by pass  3 Test12= 3.70D-14 1.19D-09 XBig12= 1.27D-05 4.92D-04.
     78 vectors produced by pass  4 Test12= 3.70D-14 1.19D-09 XBig12= 1.56D-07 4.02D-05.
     78 vectors produced by pass  5 Test12= 3.70D-14 1.19D-09 XBig12= 1.30D-09 2.87D-06.
     78 vectors produced by pass  6 Test12= 3.70D-14 1.19D-09 XBig12= 8.89D-12 3.27D-07.
     41 vectors produced by pass  7 Test12= 3.70D-14 1.19D-09 XBig12= 6.94D-14 2.47D-08.
     10 vectors produced by pass  8 Test12= 3.70D-14 1.19D-09 XBig12= 2.35D-15 5.44D-09.
     10 vectors produced by pass  9 Test12= 3.70D-14 1.19D-09 XBig12= 2.56D-15 6.13D-09.
      6 vectors produced by pass 10 Test12= 3.70D-14 1.19D-09 XBig12= 7.96D-16 3.20D-09.
      5 vectors produced by pass 11 Test12= 3.70D-14 1.19D-09 XBig12= 5.36D-16 2.70D-09.
      5 vectors produced by pass 12 Test12= 3.70D-14 1.19D-09 XBig12= 1.18D-15 3.55D-09.
      5 vectors produced by pass 13 Test12= 3.70D-14 1.19D-09 XBig12= 1.10D-15 4.13D-09.
      5 vectors produced by pass 14 Test12= 3.70D-14 1.19D-09 XBig12= 9.81D-16 2.99D-09.
      5 vectors produced by pass 15 Test12= 3.70D-14 1.19D-09 XBig12= 8.82D-16 3.63D-09.
      4 vectors produced by pass 16 Test12= 3.70D-14 1.19D-09 XBig12= 6.06D-16 3.27D-09.
      4 vectors produced by pass 17 Test12= 3.70D-14 1.19D-09 XBig12= 9.25D-16 3.54D-09.
      2 vectors produced by pass 18 Test12= 3.70D-14 1.19D-09 XBig12= 5.22D-16 2.37D-09.
 InvSVY:  IOpt=1 It=  1 EMax= 4.44D-16
 Solved reduced A of dimension   648 with    84 vectors.
 End of Minotr F.D. properties file   721 does not exist.
 End of Minotr F.D. properties file   722 does not exist.
 End of Minotr F.D. properties file   788 does not exist.

 **********************************************************************

            Population analysis using the SCF density.

 **********************************************************************

 Orbital symmetries:
       Occupied  (A) (A) (A) (A) (A) (A) (A) (A) (A) (A) (A) (A)
                 (A) (A) (A) (A) (A) (A) (A) (A) (A) (A) (A) (A)
                 (A) (A) (A) (A) (A) (A) (A) (A) (A) (A) (A) (A)
                 (A) (A) (A) (A) (A) (A) (A) (A) (A) (A) (A) (A)
                 (A) (A) (A) (A) (A) (A) (A) (A) (A) (A) (A) (A)
                 (A) (A) (A) (A)
       Virtual   (A) (A) (A) (A) (A) (A) (A) (A) (A) (A) (A) (A)
                 (A) (A) (A) (A) (A) (A) (A) (A) (A) (A) (A) (A)
                 (A) (A) (A) (A) (A) (A) (A) (A) (A) (A) (A) (A)
                 (A) (A) (A) (A) (A) (A) (A) (A) (A) (A) (A) (A)
                 (A) (A) (A) (A) (A) (A) (A) (A) (A) (A) (A) (A)
                 (A) (A) (A) (A) (A) (A) (A) (A) (A) (A) (A) (A)
                 (A) (A) (A) (A) (A) (A) (A) (A) (A) (A) (A) (A)
                 (A) (A) (A) (A) (A) (A) (A) (A) (A) (A) (A) (A)
                 (A) (A) (A) (A) (A) (A) (A) (A) (A) (A) (A) (A)
                 (A) (A) (A) (A) (A) (A) (A) (A) (A) (A) (A) (A)
                 (A) (A) (A) (A) (A) (A) (A) (A) (A) (A) (A) (A)
                 (A) (A) (A) (A) (A) (A) (A) (A) (A) (A) (A) (A)
                 (A) (A) (A) (A) (A) (A) (A) (A) (A) (A) (A) (A)
                 (A) (A) (A) (A) (A) (A) (A) (A) (A) (A) (A) (A)
                 (A) (A) (A) (A) (A) (A) (A) (A) (A) (A) (A) (A)
                 (A) (A) (A) (A) (A) (A) (A) (A) (A) (A) (A) (A)
                 (A) (A) (A) (A) (A) (A) (A) (A) (A) (A) (A) (A)
                 (A) (A) (A) (A) (A) (A) (A) (A) (A) (A) (A) (A)
                 (A) (A) (A) (A) (A) (A) (A) (A) (A) (A) (A) (A)
                 (A) (A) (A) (A) (A) (A) (A) (A) (A) (A) (A) (A)
                 (A) (A) (A) (A) (A) (A) (A) (A) (A) (A) (A) (A)
                 (A) (A) (A) (A) (A) (A) (A) (A) (A) (A) (A) (A)
                 (A) (A) (A) (A) (A) (A) (A) (A) (A) (A) (A) (A)
                 (A) (A) (A) (A) (A) (A) (A) (A) (A) (A) (A) (A)
                 (A) (A) (A) (A) (A) (A) (A) (A) (A) (A) (A) (A)
                 (A) (A) (A) (A) (A) (A) (A) (A) (A) (A) (A) (A)
                 (A) (A) (A) (A) (A) (A) (A) (A) (A) (A) (A) (A)
                 (A) (A) (A) (A) (A) (A) (A) (A) (A) (A) (A) (A)
                 (A) (A) (A) (A) (A) (A) (A) (A) (A) (A) (A) (A)
                 (A) (A) (A) (A) (A) (A) (A) (A) (A) (A) (A) (A)
                 (A) (A) (A) (A) (A) (A) (A) (A) (A) (A) (A) (A)
                 (A) (A) (A) (A) (A) (A) (A) (A) (A) (A) (A) (A)
                 (A) (A) (A) (A) (A) (A) (A) (A) (A) (A) (A) (A)
                 (A) (A) (A) (A) (A) (A) (A) (A) (A) (A) (A) (A)
                 (A) (A) (A) (A) (A) (A) (A) (A) (A) (A) (A) (A)
                 (A) (A) (A) (A) (A) (A) (A) (A) (A) (A) (A) (A)
                 (A) (A) (A) (A) (A) (A) (A) (A) (A) (A) (A) (A)
                 (A) (A) (A) (A) (A) (A) (A) (A) (A) (A) (A) (A)
                 (A) (A) (A) (A) (A) (A) (A) (A) (A) (A) (A) (A)
                 (A) (A) (A) (A) (A) (A) (A) (A) (A) (A) (A) (A)
                 (A) (A) (A) (A) (A)
 The electronic state is 1-A.
 Alpha  occ. eigenvalues -- -101.70699-101.69831 -19.21004 -14.49080 -14.46650
 Alpha  occ. eigenvalues --  -10.39476 -10.39430 -10.33950 -10.32234 -10.31511
 Alpha  occ. eigenvalues --  -10.29088 -10.28932 -10.28903 -10.28298 -10.28252
 Alpha  occ. eigenvalues --   -9.59276  -9.58354  -7.33927  -7.33059  -7.33015
 Alpha  occ. eigenvalues --   -7.32981  -7.32162  -7.32117  -1.14071  -1.04795
 Alpha  occ. eigenvalues --   -1.04424  -0.99018  -0.95877  -0.94534  -0.85572
 Alpha  occ. eigenvalues --   -0.85159  -0.83687  -0.79339  -0.75130  -0.71630
 Alpha  occ. eigenvalues --   -0.68803  -0.65067  -0.63794  -0.63483  -0.60752
 Alpha  occ. eigenvalues --   -0.58047  -0.56747  -0.55383  -0.54152  -0.53557
 Alpha  occ. eigenvalues --   -0.52639  -0.52153  -0.51702  -0.50503  -0.48735
 Alpha  occ. eigenvalues --   -0.48455  -0.48059  -0.46350  -0.44801  -0.42978
 Alpha  occ. eigenvalues --   -0.42887  -0.41665  -0.40078  -0.39940  -0.39108
 Alpha  occ. eigenvalues --   -0.34445  -0.33796  -0.30549  -0.27282
 Alpha virt. eigenvalues --    0.03496   0.05346   0.07067   0.08937   0.10113
 Alpha virt. eigenvalues --    0.12988   0.13254   0.14344   0.14792   0.15603
 Alpha virt. eigenvalues --    0.16495   0.17048   0.17907   0.18168   0.18849
 Alpha virt. eigenvalues --    0.19381   0.19607   0.21350   0.21623   0.22724
 Alpha virt. eigenvalues --    0.23129   0.24370   0.25418   0.26763   0.27281
 Alpha virt. eigenvalues --    0.27954   0.28436   0.29038   0.29794   0.30038
 Alpha virt. eigenvalues --    0.30622   0.30748   0.31820   0.32003   0.32713
 Alpha virt. eigenvalues --    0.33926   0.34056   0.34640   0.35431   0.36151
 Alpha virt. eigenvalues --    0.37141   0.37327   0.37958   0.38601   0.39060
 Alpha virt. eigenvalues --    0.39784   0.40404   0.41670   0.41988   0.42081
 Alpha virt. eigenvalues --    0.42808   0.43668   0.43836   0.44007   0.44695
 Alpha virt. eigenvalues --    0.45399   0.45710   0.46093   0.47212   0.47933
 Alpha virt. eigenvalues --    0.48825   0.50221   0.50374   0.50397   0.51054
 Alpha virt. eigenvalues --    0.51494   0.52037   0.52526   0.52801   0.53584
 Alpha virt. eigenvalues --    0.54193   0.55025   0.55321   0.55963   0.57022
 Alpha virt. eigenvalues --    0.57586   0.57726   0.58392   0.58789   0.59935
 Alpha virt. eigenvalues --    0.60479   0.61426   0.62195   0.62826   0.63374
 Alpha virt. eigenvalues --    0.63788   0.65571   0.67459   0.67756   0.68306
 Alpha virt. eigenvalues --    0.69141   0.69449   0.70862   0.71888   0.72079
 Alpha virt. eigenvalues --    0.74153   0.74338   0.75268   0.76177   0.77714
 Alpha virt. eigenvalues --    0.78339   0.79128   0.79695   0.81066   0.81596
 Alpha virt. eigenvalues --    0.82382   0.82827   0.84138   0.85183   0.86132
 Alpha virt. eigenvalues --    0.86767   0.88736   0.89455   0.90371   0.91028
 Alpha virt. eigenvalues --    0.92379   0.92835   0.94315   0.94749   0.96414
 Alpha virt. eigenvalues --    0.97121   0.98016   0.98120   0.99054   1.00113
 Alpha virt. eigenvalues --    1.01469   1.04630   1.06720   1.07603   1.09561
 Alpha virt. eigenvalues --    1.10091   1.11076   1.12346   1.12952   1.14155
 Alpha virt. eigenvalues --    1.16365   1.16849   1.17688   1.18273   1.21409
 Alpha virt. eigenvalues --    1.23172   1.24300   1.26115   1.27341   1.28377
 Alpha virt. eigenvalues --    1.29962   1.30427   1.31213   1.31690   1.33019
 Alpha virt. eigenvalues --    1.33819   1.35183   1.36010   1.36775   1.39308
 Alpha virt. eigenvalues --    1.40404   1.40868   1.41965   1.44009   1.45308
 Alpha virt. eigenvalues --    1.46944   1.48233   1.49457   1.50856   1.53086
 Alpha virt. eigenvalues --    1.54076   1.55605   1.55955   1.57194   1.58131
 Alpha virt. eigenvalues --    1.58522   1.59712   1.60389   1.60798   1.61494
 Alpha virt. eigenvalues --    1.62857   1.63479   1.64696   1.65300   1.66671
 Alpha virt. eigenvalues --    1.67254   1.70279   1.71779   1.72342   1.72514
 Alpha virt. eigenvalues --    1.73256   1.76110   1.76271   1.77158   1.77951
 Alpha virt. eigenvalues --    1.80134   1.80588   1.81935   1.82673   1.84189
 Alpha virt. eigenvalues --    1.84398   1.85512   1.86494   1.87601   1.88772
 Alpha virt. eigenvalues --    1.88902   1.90086   1.90476   1.91451   1.92121
 Alpha virt. eigenvalues --    1.93435   1.94747   1.94924   1.95159   1.96090
 Alpha virt. eigenvalues --    1.96927   1.97636   1.98613   2.00531   2.01017
 Alpha virt. eigenvalues --    2.02534   2.02955   2.04626   2.05334   2.06203
 Alpha virt. eigenvalues --    2.07521   2.08796   2.09399   2.11360   2.12587
 Alpha virt. eigenvalues --    2.14258   2.14629   2.15717   2.16374   2.16478
 Alpha virt. eigenvalues --    2.17254   2.18160   2.18891   2.19420   2.21241
 Alpha virt. eigenvalues --    2.21866   2.23223   2.24428   2.26088   2.27268
 Alpha virt. eigenvalues --    2.28388   2.29724   2.30018   2.31753   2.32451
 Alpha virt. eigenvalues --    2.33301   2.34207   2.34698   2.35450   2.36678
 Alpha virt. eigenvalues --    2.37939   2.38682   2.39341   2.40454   2.41593
 Alpha virt. eigenvalues --    2.42785   2.44091   2.44761   2.45755   2.47107
 Alpha virt. eigenvalues --    2.49029   2.51097   2.52922   2.54969   2.57383
 Alpha virt. eigenvalues --    2.57878   2.59813   2.61373   2.61733   2.63528
 Alpha virt. eigenvalues --    2.64911   2.65725   2.66876   2.67838   2.69072
 Alpha virt. eigenvalues --    2.69590   2.71190   2.73912   2.74800   2.75740
 Alpha virt. eigenvalues --    2.76083   2.76834   2.77134   2.77449   2.79083
 Alpha virt. eigenvalues --    2.80295   2.81499   2.82465   2.83871   2.85068
 Alpha virt. eigenvalues --    2.85306   2.85865   2.86641   2.87247   2.89076
 Alpha virt. eigenvalues --    2.89968   2.90997   2.91817   2.92643   2.92889
 Alpha virt. eigenvalues --    2.93881   2.94997   2.95969   2.96797   2.97995
 Alpha virt. eigenvalues --    2.99192   2.99792   3.01900   3.05234   3.05996
 Alpha virt. eigenvalues --    3.06930   3.08505   3.10111   3.12275   3.13339
 Alpha virt. eigenvalues --    3.14779   3.15454   3.16255   3.18076   3.19011
 Alpha virt. eigenvalues --    3.19866   3.21315   3.22225   3.22567   3.23245
 Alpha virt. eigenvalues --    3.23703   3.24847   3.25306   3.26307   3.27238
 Alpha virt. eigenvalues --    3.28329   3.30876   3.31771   3.32883   3.33571
 Alpha virt. eigenvalues --    3.33816   3.34083   3.36908   3.37406   3.39005
 Alpha virt. eigenvalues --    3.39771   3.40247   3.41020   3.42659   3.43130
 Alpha virt. eigenvalues --    3.44580   3.44905   3.46375   3.47388   3.48277
 Alpha virt. eigenvalues --    3.50863   3.52124   3.52480   3.54113   3.55101
 Alpha virt. eigenvalues --    3.55941   3.57288   3.58767   3.59638   3.59947
 Alpha virt. eigenvalues --    3.60526   3.61274   3.62945   3.63805   3.64673
 Alpha virt. eigenvalues --    3.66799   3.70392   3.74025   3.75188   3.75916
 Alpha virt. eigenvalues --    3.77986   3.80483   3.83837   3.85189   3.86005
 Alpha virt. eigenvalues --    3.88480   3.89943   3.91312   3.93354   3.96770
 Alpha virt. eigenvalues --    3.98474   4.00786   4.05290   4.06553   4.09410
 Alpha virt. eigenvalues --    4.10816   4.12656   4.14907   4.15803   4.18041
 Alpha virt. eigenvalues --    4.18831   4.20160   4.22370   4.24088   4.25292
 Alpha virt. eigenvalues --    4.26529   4.27671   4.28017   4.29705   4.32460
 Alpha virt. eigenvalues --    4.32724   4.34337   4.38488   4.39835   4.40921
 Alpha virt. eigenvalues --    4.43472   4.44384   4.46524   4.50095   4.52687
 Alpha virt. eigenvalues --    4.54595   4.59157   4.64472   4.67244   4.69469
 Alpha virt. eigenvalues --    4.72424   4.75307   4.78387   4.78926   4.84068
 Alpha virt. eigenvalues --    4.92077   4.93205   4.93513   4.94810   4.95797
 Alpha virt. eigenvalues --    4.97853   4.99239   5.01591   5.04067   5.06284
 Alpha virt. eigenvalues --    5.10072   5.15504   5.17219   5.17784   5.19067
 Alpha virt. eigenvalues --    5.21777   5.23733   5.28017   5.29460   5.34351
 Alpha virt. eigenvalues --    5.35396   5.37096   5.40825   5.42171   5.46165
 Alpha virt. eigenvalues --    5.48992   5.54804   5.56976   5.67247   5.70962
 Alpha virt. eigenvalues --    5.75162   5.79228   5.86809   6.00269   6.11848
 Alpha virt. eigenvalues --    6.19458   6.19930   6.44876   6.50513   6.72804
 Alpha virt. eigenvalues --    6.89230   6.92994   7.19713   7.27948  10.84128
 Alpha virt. eigenvalues --   10.85570  10.88527  10.96424  11.39488  11.47524
 Alpha virt. eigenvalues --   22.23224  22.39020  22.45665  22.70831  22.72156
 Alpha virt. eigenvalues --   22.73712  22.85987  22.96780  23.36750  23.50451
 Alpha virt. eigenvalues --   25.59855  25.88889  32.13962  32.82967  44.11506
          Condensed to atoms (all electrons):
               1          2          3          4          5          6
     1  C    5.773773   0.287124  -0.133748   0.338217   0.001538   0.002154
     2  C    0.287124   4.481503   0.578535  -0.038249  -0.000009  -0.000016
     3  O   -0.133748   0.578535   8.145342   0.012717  -0.003334   0.000141
     4  C    0.338217  -0.038249   0.012717   4.927954   0.002912  -0.006103
     5  C    0.001538  -0.000009  -0.003334   0.002912   4.867352   0.409402
     6  H    0.002154  -0.000016   0.000141  -0.006103   0.409402   0.507408
     7  H   -0.000585   0.000028   0.000058   0.001774   0.408833  -0.019385
     8  H   -0.004079   0.000121   0.003665   0.000941   0.412615  -0.023427
     9  N   -0.094744   0.018045   0.004253   0.055118   0.235699  -0.032659
    10  H    0.001427   0.002355   0.000957  -0.015575  -0.018495   0.005791
    11  H   -0.004506   0.000206  -0.000028   0.001522  -0.021954  -0.005366
    12  Cl  -0.046478   0.002079   0.000250   0.315963  -0.004577   0.008086
    13  H   -0.062660  -0.005200   0.021707   0.457045   0.000867  -0.001243
    14  Cl   0.259781  -0.062196   0.003640  -0.047802  -0.000089  -0.000001
    15  N   -0.100649   0.405308  -0.102007   0.011462  -0.000081   0.000005
    16  C    0.007535  -0.034361  -0.013589  -0.001288  -0.000010   0.000000
    17  C    0.003443  -0.026565  -0.007983   0.000372  -0.000002   0.000000
    18  C   -0.000311   0.000543  -0.000439   0.000002   0.000000   0.000000
    19  C    0.000059  -0.000397   0.000235   0.000001  -0.000000  -0.000000
    20  C   -0.000113   0.000174  -0.000077  -0.000010   0.000000  -0.000000
    21  C   -0.002254   0.008719   0.003191  -0.000051   0.000001  -0.000000
    22  H   -0.010696  -0.038376   0.003839   0.001373   0.000005   0.000000
    23  H    0.001941  -0.006420   0.029654  -0.000116  -0.000004   0.000000
    24  H   -0.000009  -0.000020  -0.000134   0.000000  -0.000000   0.000000
    25  H    0.000001   0.000001   0.000002  -0.000000   0.000000  -0.000000
    26  H   -0.000001   0.000018  -0.000001   0.000000  -0.000000   0.000000
    27  H    0.000016   0.000431   0.000011   0.000011  -0.000000  -0.000000
               7          8          9         10         11         12
     1  C   -0.000585  -0.004079  -0.094744   0.001427  -0.004506  -0.046478
     2  C    0.000028   0.000121   0.018045   0.002355   0.000206   0.002079
     3  O    0.000058   0.003665   0.004253   0.000957  -0.000028   0.000250
     4  C    0.001774   0.000941   0.055118  -0.015575   0.001522   0.315963
     5  C    0.408833   0.412615   0.235699  -0.018495  -0.021954  -0.004577
     6  H   -0.019385  -0.023427  -0.032659   0.005791  -0.005366   0.008086
     7  H    0.503060  -0.018888  -0.024202  -0.004494  -0.004359  -0.000268
     8  H   -0.018888   0.505052  -0.035190  -0.005062   0.005519   0.000521
     9  N   -0.024202  -0.035190   6.585650   0.354060   0.349602  -0.061100
    10  H   -0.004494  -0.005062   0.354060   0.407538  -0.018846   0.003454
    11  H   -0.004359   0.005519   0.349602  -0.018846   0.405935   0.003759
    12  Cl  -0.000268   0.000521  -0.061100   0.003454   0.003759  16.902160
    13  H    0.000171   0.000858  -0.044010  -0.000553   0.002086  -0.023114
    14  Cl   0.000020  -0.000010   0.004022   0.000975   0.000654  -0.007423
    15  N    0.000002   0.000013   0.000498   0.000070  -0.000033  -0.000167
    16  C    0.000000  -0.000016   0.000095   0.000028  -0.000005  -0.000001
    17  C   -0.000000   0.000007  -0.000010   0.000008   0.000001  -0.000003
    18  C   -0.000000  -0.000000  -0.000000   0.000000   0.000000  -0.000000
    19  C    0.000000   0.000000   0.000000  -0.000000  -0.000000   0.000000
    20  C   -0.000000  -0.000000  -0.000000   0.000000  -0.000000   0.000000
    21  C   -0.000000  -0.000000   0.000001  -0.000001   0.000000  -0.000001
    22  H   -0.000000  -0.000003  -0.000073  -0.000000   0.000001   0.000033
    23  H    0.000000   0.000013  -0.000008  -0.000005   0.000000  -0.000000
    24  H    0.000000  -0.000000   0.000000   0.000000  -0.000000  -0.000000
    25  H   -0.000000  -0.000000   0.000000  -0.000000  -0.000000   0.000000
    26  H    0.000000  -0.000000   0.000000   0.000000  -0.000000  -0.000000
    27  H    0.000000   0.000000   0.000000  -0.000000  -0.000000  -0.000000
              13         14         15         16         17         18
     1  C   -0.062660   0.259781  -0.100649   0.007535   0.003443  -0.000311
     2  C   -0.005200  -0.062196   0.405308  -0.034361  -0.026565   0.000543
     3  O    0.021707   0.003640  -0.102007  -0.013589  -0.007983  -0.000439
     4  C    0.457045  -0.047802   0.011462  -0.001288   0.000372   0.000002
     5  C    0.000867  -0.000089  -0.000081  -0.000010  -0.000002   0.000000
     6  H   -0.001243  -0.000001   0.000005   0.000000   0.000000   0.000000
     7  H    0.000171   0.000020   0.000002   0.000000  -0.000000  -0.000000
     8  H    0.000858  -0.000010   0.000013  -0.000016   0.000007  -0.000000
     9  N   -0.044010   0.004022   0.000498   0.000095  -0.000010  -0.000000
    10  H   -0.000553   0.000975   0.000070   0.000028   0.000008   0.000000
    11  H    0.002086   0.000654  -0.000033  -0.000005   0.000001   0.000000
    12  Cl  -0.023114  -0.007423  -0.000167  -0.000001  -0.000003  -0.000000
    13  H    0.457029   0.004756   0.001381  -0.000207   0.000030   0.000001
    14  Cl   0.004756  16.989031  -0.010586   0.007568  -0.000213   0.000002
    15  N    0.001381  -0.010586   6.471937   0.334411  -0.053535   0.002829
    16  C   -0.000207   0.007568   0.334411   4.865691   0.360439   0.016815
    17  C    0.000030  -0.000213  -0.053535   0.360439   5.211753   0.402107
    18  C    0.000001   0.000002   0.002829   0.016815   0.402107   4.981270
    19  C    0.000000   0.000001   0.000541  -0.095136   0.033790   0.415958
    20  C    0.000000  -0.000041   0.003441   0.013829  -0.083786   0.009513
    21  C   -0.000008  -0.001786  -0.067271   0.363869   0.056149  -0.081740
    22  H   -0.000200   0.020598   0.381159  -0.037550   0.006869  -0.000009
    23  H    0.000029  -0.000088  -0.001621  -0.047143   0.433029  -0.037771
    24  H   -0.000000   0.000000  -0.000107   0.013863  -0.058452   0.451876
    25  H   -0.000000  -0.000000   0.000000  -0.005209   0.013239  -0.060179
    26  H    0.000000  -0.000000  -0.000082   0.014783  -0.005143   0.012044
    27  H   -0.000000   0.000697  -0.000575  -0.067717   0.010212  -0.003294
              19         20         21         22         23         24
     1  C    0.000059  -0.000113  -0.002254  -0.010696   0.001941  -0.000009
     2  C   -0.000397   0.000174   0.008719  -0.038376  -0.006420  -0.000020
     3  O    0.000235  -0.000077   0.003191   0.003839   0.029654  -0.000134
     4  C    0.000001  -0.000010  -0.000051   0.001373  -0.000116   0.000000
     5  C   -0.000000   0.000000   0.000001   0.000005  -0.000004  -0.000000
     6  H   -0.000000  -0.000000  -0.000000   0.000000   0.000000   0.000000
     7  H    0.000000  -0.000000  -0.000000  -0.000000   0.000000   0.000000
     8  H    0.000000  -0.000000  -0.000000  -0.000003   0.000013  -0.000000
     9  N    0.000000  -0.000000   0.000001  -0.000073  -0.000008   0.000000
    10  H   -0.000000   0.000000  -0.000001  -0.000000  -0.000005   0.000000
    11  H   -0.000000  -0.000000   0.000000   0.000001   0.000000  -0.000000
    12  Cl   0.000000   0.000000  -0.000001   0.000033  -0.000000  -0.000000
    13  H    0.000000   0.000000  -0.000008  -0.000200   0.000029  -0.000000
    14  Cl   0.000001  -0.000041  -0.001786   0.020598  -0.000088   0.000000
    15  N    0.000541   0.003441  -0.067271   0.381159  -0.001621  -0.000107
    16  C   -0.095136   0.013829   0.363869  -0.037550  -0.047143   0.013863
    17  C    0.033790  -0.083786   0.056149   0.006869   0.433029  -0.058452
    18  C    0.415958   0.009513  -0.081740  -0.000009  -0.037771   0.451876
    19  C    5.040776   0.410988   0.029954  -0.000084   0.008724  -0.056418
    20  C    0.410988   4.947008   0.427591   0.000999  -0.003343   0.011057
    21  C    0.029954   0.427591   5.174250  -0.004185   0.007941  -0.003884
    22  H   -0.000084   0.000999  -0.004185   0.438996  -0.000412   0.000018
    23  H    0.008724  -0.003343   0.007941  -0.000412   0.459782  -0.006381
    24  H   -0.056418   0.011057  -0.003884   0.000018  -0.006381   0.513819
    25  H    0.457581  -0.059089   0.012842  -0.000001   0.000041  -0.006644
    26  H   -0.058529   0.457424  -0.062504  -0.000047  -0.000001  -0.000074
    27  H    0.009404  -0.037700   0.449079   0.003740   0.000005   0.000014
              25         26         27
     1  C    0.000001  -0.000001   0.000016
     2  C    0.000001   0.000018   0.000431
     3  O    0.000002  -0.000001   0.000011
     4  C   -0.000000   0.000000   0.000011
     5  C    0.000000  -0.000000  -0.000000
     6  H   -0.000000   0.000000  -0.000000
     7  H   -0.000000   0.000000   0.000000
     8  H   -0.000000  -0.000000   0.000000
     9  N    0.000000   0.000000   0.000000
    10  H   -0.000000   0.000000  -0.000000
    11  H   -0.000000  -0.000000  -0.000000
    12  Cl   0.000000  -0.000000  -0.000000
    13  H   -0.000000   0.000000  -0.000000
    14  Cl  -0.000000  -0.000000   0.000697
    15  N    0.000000  -0.000082  -0.000575
    16  C   -0.005209   0.014783  -0.067717
    17  C    0.013239  -0.005143   0.010212
    18  C   -0.060179   0.012044  -0.003294
    19  C    0.457581  -0.058529   0.009404
    20  C   -0.059089   0.457424  -0.037700
    21  C    0.012842  -0.062504   0.449079
    22  H   -0.000001  -0.000047   0.003740
    23  H    0.000041  -0.000001   0.000005
    24  H   -0.006644  -0.000074   0.000014
    25  H    0.513131  -0.006490  -0.000038
    26  H   -0.006490   0.512211  -0.007331
    27  H   -0.000038  -0.007331   0.501193
 Mulliken charges:
               1
     1  C   -0.216176
     2  C    0.426619
     3  O   -0.546857
     4  C   -0.018189
     5  C   -0.290668
     6  H    0.155213
     7  H    0.158235
     8  H    0.157352
     9  N   -0.315049
    10  H    0.286370
    11  H    0.285813
    12  Cl  -0.093172
    13  H    0.191235
    14  Cl  -0.161510
    15  N   -0.276343
    16  C    0.303304
    17  C   -0.295755
    18  C   -0.109218
    19  C   -0.197449
    20  C   -0.097865
    21  C   -0.309902
    22  H    0.234007
    23  H    0.162154
    24  H    0.141475
    25  H    0.140810
    26  H    0.143724
    27  H    0.141842
 Sum of Mulliken charges =  -0.00000
 Mulliken charges with hydrogens summed into heavy atoms:
               1
     1  C   -0.216176
     2  C    0.426619
     3  O   -0.546857
     4  C    0.173047
     5  C    0.180132
     9  N    0.257134
    12  Cl  -0.093172
    14  Cl  -0.161510
    15  N   -0.042336
    16  C    0.303304
    17  C   -0.133601
    18  C    0.032256
    19  C   -0.056638
    20  C    0.045859
    21  C   -0.168060
 APT charges:
               1
     1  C   -0.374330
     2  C    0.005691
     3  O   -0.350091
     4  C   -0.454328
     5  C   -1.350269
     6  H    0.616366
     7  H    0.784872
     8  H    0.081390
     9  N   -0.601447
    10  H    0.128209
    11  H    0.814296
    12  Cl   0.264985
    13  H    0.375192
    14  Cl   0.025196
    15  N   -0.524854
    16  C   -0.182485
    17  C   -0.518033
    18  C   -0.589605
    19  C   -0.720111
    20  C   -0.633773
    21  C   -0.575912
    22  H    0.442557
    23  H    0.129290
    24  H    0.755581
    25  H    1.179802
    26  H    0.943659
    27  H    0.328154
 Sum of APT charges =  -0.00000
 APT charges with hydrogens summed into heavy atoms:
               1
     1  C   -0.374330
     2  C    0.005691
     3  O   -0.350091
     4  C   -0.079136
     5  C    0.132358
     9  N    0.341058
    12  Cl   0.264985
    14  Cl   0.025196
    15  N   -0.082297
    16  C   -0.182485
    17  C   -0.388743
    18  C    0.165976
    19  C    0.459691
    20  C    0.309886
    21  C   -0.247758
 Electronic spatial extent (au):  <R**2>=           5565.9452
 Charge=             -0.0000 electrons
 Dipole moment (field-independent basis, Debye):
    X=             -4.9079    Y=              1.8285    Z=              4.7006  Tot=              7.0375
 Quadrupole moment (field-independent basis, Debye-Ang):
   XX=            -80.0809   YY=            -97.4837   ZZ=           -101.2088
   XY=            -17.0834   XZ=             -9.9841   YZ=              2.5507
 Traceless Quadrupole moment (field-independent basis, Debye-Ang):
   XX=             12.8436   YY=             -4.5592   ZZ=             -8.2843
   XY=            -17.0834   XZ=             -9.9841   YZ=              2.5507
 Octapole moment (field-independent basis, Debye-Ang**2):
  XXX=            -74.5680  YYY=              9.1608  ZZZ=             15.1417  XYY=            -16.2892
  XXY=             42.2367  XXZ=             44.3590  XZZ=            -44.1360  YZZ=              5.7507
  YYZ=             10.9659  XYZ=            -20.4295
 Hexadecapole moment (field-independent basis, Debye-Ang**3):
 XXXX=          -5370.5595 YYYY=          -1075.1644 ZZZZ=           -321.2283 XXXY=           -145.5092
 XXXZ=           -106.4672 YYYX=            -65.6556 YYYZ=              1.9683 ZZZX=            -40.3867
 ZZZY=             17.4983 XXYY=          -1045.8289 XXZZ=          -1063.7346 YYZZ=           -236.4583
 XXYZ=             -3.0174 YYXZ=            -24.3417 ZZXY=            -28.0850
 N-N= 1.172940646833D+03 E-N=-5.870550844210D+03  KE= 1.489437639904D+03
  Exact polarizability:   0.000   0.000   0.000   0.000   0.000   0.000
 Approx polarizability: 231.667  -2.114 198.792   1.927 -12.625 137.409
   1 Symmetry operations used in ECPInt.
 ECPInt:  NShTT=   23653 NPrTT=   75085 LenC2=   20434 LenP2D=   46359.
 LDataN:  DoStor=T MaxTD1= 8 Len=  415
 D2PCM: PCM CHGder 2nd derivatives, FixD1E=F FixD2E=F DoIter=F DoCFld=F I1PDM=0
 Calling FoFJK, ICntrl=    100147 FMM=F ISym2X=0 I1Cent= 0 IOpClX= 0 NMat=1 NMatS=1 NMatT=0.
 ***** Axes restored to original set *****
 -------------------------------------------------------------------
 Center     Atomic                   Forces (Hartrees/Bohr)
 Number     Number              X              Y              Z
 -------------------------------------------------------------------
      1        6          -0.000219973   -0.000301450    0.000118743
      2        6           0.000013681    0.000004270    0.000018556
      3        8           0.000011265    0.000011800    0.000011829
      4        6          -0.000178838    0.000104831   -0.000116678
      5        6          -0.000281364   -0.000109299   -0.000037917
      6        1           0.000016928    0.000003574   -0.000012120
      7        1          -0.000031150   -0.000014958    0.000002248
      8        1           0.000013894   -0.000012167   -0.000003277
      9        7          -0.000162352   -0.000094159   -0.000072611
     10        1           0.000119272    0.000419399   -0.000211182
     11        1           0.000365142   -0.000256787    0.000300943
     12       17          -0.000068572    0.000209265   -0.000147363
     13        1           0.000418455    0.000039417    0.000164071
     14       17          -0.000005854   -0.000000917   -0.000010424
     15        7          -0.000017501   -0.000001306   -0.000009284
     16        6           0.000010697    0.000006001    0.000006971
     17        6          -0.000003610   -0.000007723   -0.000010486
     18        6          -0.000002265    0.000007854    0.000002236
     19        6           0.000004000   -0.000003828    0.000001908
     20        6           0.000002655   -0.000003379   -0.000000206
     21        6          -0.000001673    0.000004147    0.000007426
     22        1           0.000002152   -0.000000247   -0.000011938
     23        1           0.000000209    0.000001514    0.000003891
     24        1           0.000000337   -0.000002200    0.000005217
     25        1          -0.000002109   -0.000000763    0.000003524
     26        1          -0.000001453    0.000000154   -0.000001644
     27        1          -0.000001972   -0.000003043   -0.000002433
 -------------------------------------------------------------------
 Cartesian Forces:  Max     0.000419399 RMS     0.000118928
 FormGI is forming the generalized inverse of G from B-inverse, IUseBI=4.

 GradGradGradGradGradGradGradGradGradGradGradGradGradGradGradGradGradGrad
 Berny optimization.
 Internal  Forces:  Max     0.000318183 RMS     0.000078789
 Search for a saddle point.
 Step number   1 out of a maximum of   70
 All quantities printed in internal units (Hartrees-Bohrs-Radians)
 Swapping is turned off.
 Second derivative matrix not updated -- analytic derivatives used.
 ITU=  0
     Eigenvalues ---   -0.03524  -0.00071   0.00129   0.00168   0.00496
     Eigenvalues ---    0.00784   0.00864   0.01166   0.01227   0.01673
     Eigenvalues ---    0.01803   0.01889   0.01976   0.02340   0.02373
     Eigenvalues ---    0.02605   0.02745   0.02901   0.03044   0.03344
     Eigenvalues ---    0.04360   0.04688   0.04795   0.04966   0.05712
     Eigenvalues ---    0.06334   0.08418   0.09485   0.10418   0.10822
     Eigenvalues ---    0.11219   0.11880   0.12316   0.12656   0.13311
     Eigenvalues ---    0.13505   0.14961   0.16336   0.16877   0.17447
     Eigenvalues ---    0.17571   0.18085   0.19343   0.19482   0.20691
     Eigenvalues ---    0.22222   0.23471   0.24487   0.27087   0.27851
     Eigenvalues ---    0.32254   0.34164   0.34466   0.34711   0.34759
     Eigenvalues ---    0.35739   0.36124   0.36180   0.36458   0.36480
     Eigenvalues ---    0.36843   0.37173   0.37876   0.41668   0.43962
     Eigenvalues ---    0.45307   0.45418   0.46287   0.47529   0.47607
     Eigenvalues ---    0.48328   0.49841   0.51664   0.57624   0.74130
 Eigenvectors required to have negative eigenvalues:
                          R6        D9        D6        A11       R2
   1                   -0.88916  -0.19351  -0.18836   0.17817   0.12237
                          D7        D10       A9        D8        R1
   1                    0.10087   0.09572  -0.09224  -0.09170  -0.09066
 RFO step:  Lambda0=1.610324610D-07 Lambda=-1.29421132D-03.
 Linear search not attempted -- option 19 set.
 Maximum step size (   0.080) exceeded in Quadratic search.
    -- Step size scaled by   0.737
 Iteration  1 RMS(Cart)=  0.11570094 RMS(Int)=  0.01545532
 Iteration  2 RMS(Cart)=  0.03036374 RMS(Int)=  0.00053960
 Iteration  3 RMS(Cart)=  0.00088313 RMS(Int)=  0.00002168
 Iteration  4 RMS(Cart)=  0.00000061 RMS(Int)=  0.00002167
 Variable       Old X    -DE/DX   Delta X   Delta X   Delta X     New X
                                 (Linear)    (Quad)   (Total)
    R1        2.73644   0.00002   0.00000   0.00066   0.00066   2.73710
    R2        2.60759  -0.00001   0.00000  -0.00082  -0.00082   2.60677
    R3        3.31008  -0.00000   0.00000  -0.00004  -0.00004   3.31004
    R4        2.33326   0.00001   0.00000  -0.00016  -0.00016   2.33311
    R5        2.59336  -0.00001   0.00000  -0.00058  -0.00058   2.59278
    R6        3.61290  -0.00007   0.00000   0.00844   0.00844   3.62134
    R7        3.31933  -0.00000   0.00000  -0.00426  -0.00426   3.31507
    R8        2.04329  -0.00000   0.00000  -0.00003  -0.00003   2.04325
    R9        2.05779  -0.00000   0.00000  -0.00015  -0.00015   2.05763
   R10        2.05946   0.00000   0.00000   0.00025   0.00025   2.05971
   R11        2.05726   0.00001   0.00000   0.00028   0.00028   2.05754
   R12        2.76303  -0.00001   0.00000  -0.00127  -0.00127   2.76176
   R13        1.91539  -0.00002   0.00000  -0.00031  -0.00031   1.91507
   R14        1.91575   0.00002   0.00000   0.00012   0.00012   1.91587
   R15        2.64168   0.00001   0.00000  -0.00003  -0.00003   2.64165
   R16        1.90256  -0.00000   0.00000   0.00004   0.00004   1.90260
   R17        2.63732  -0.00000   0.00000  -0.00022  -0.00022   2.63710
   R18        2.64294  -0.00000   0.00000  -0.00008  -0.00008   2.64286
   R19        2.62357  -0.00000   0.00000   0.00008   0.00008   2.62365
   R20        2.03576   0.00000   0.00000   0.00001   0.00001   2.03577
   R21        2.61861   0.00000   0.00000  -0.00001  -0.00001   2.61859
   R22        2.04700  -0.00000   0.00000  -0.00003  -0.00003   2.04697
   R23        2.62453   0.00000   0.00000   0.00003   0.00003   2.62456
   R24        2.04499  -0.00000   0.00000  -0.00002  -0.00002   2.04497
   R25        2.61262   0.00000   0.00000  -0.00012  -0.00012   2.61251
   R26        2.04627  -0.00000   0.00000   0.00001   0.00001   2.04628
   R27        2.04855   0.00000   0.00000  -0.00004  -0.00004   2.04850
    A1        2.06494  -0.00003   0.00000   0.00007   0.00006   2.06500
    A2        2.10955   0.00002   0.00000  -0.00151  -0.00152   2.10803
    A3        2.09708   0.00001   0.00000   0.00047   0.00046   2.09754
    A4        2.11601  -0.00001   0.00000  -0.00121  -0.00121   2.11479
    A5        2.02815   0.00004   0.00000  -0.00031  -0.00031   2.02784
    A6        2.13896  -0.00003   0.00000   0.00154   0.00154   2.14051
    A7        1.97340  -0.00010   0.00000  -0.00477  -0.00477   1.96864
    A8        2.09600   0.00002   0.00000   0.00008   0.00006   2.09606
    A9        2.00432   0.00001   0.00000   0.00752   0.00749   2.01181
   A10        1.72641   0.00005   0.00000  -0.00126  -0.00126   1.72515
   A11        1.63739   0.00002   0.00000  -0.00657  -0.00655   1.63084
   A12        1.95024   0.00000   0.00000   0.00117   0.00114   1.95138
   A13        1.90471  -0.00000   0.00000  -0.00020  -0.00020   1.90451
   A14        1.90500   0.00000   0.00000  -0.00151  -0.00151   1.90349
   A15        1.90023  -0.00000   0.00000  -0.00145  -0.00145   1.89878
   A16        1.90456   0.00002   0.00000  -0.00132  -0.00132   1.90323
   A17        1.94783   0.00000   0.00000   0.00148   0.00147   1.94931
   A18        1.90111  -0.00002   0.00000   0.00295   0.00294   1.90405
   A19        1.96813  -0.00001   0.00000   0.01843   0.01843   1.98656
   A20        1.80763   0.00001   0.00000  -0.00577  -0.00589   1.80174
   A21        1.89308  -0.00002   0.00000  -0.01828  -0.01831   1.87477
   A22        1.95254  -0.00001   0.00000   0.00314   0.00313   1.95567
   A23        1.94782   0.00004   0.00000   0.00105   0.00115   1.94897
   A24        1.88771  -0.00001   0.00000  -0.00015  -0.00024   1.88747
   A25        2.26074  -0.00004   0.00000   0.00115   0.00115   2.26189
   A26        2.01424   0.00002   0.00000  -0.00062  -0.00062   2.01362
   A27        2.00814   0.00002   0.00000  -0.00056  -0.00056   2.00757
   A28        2.16860  -0.00002   0.00000   0.00021   0.00021   2.16880
   A29        2.03980   0.00002   0.00000  -0.00043  -0.00043   2.03937
   A30        2.07478   0.00000   0.00000   0.00023   0.00023   2.07501
   A31        2.08906   0.00000   0.00000  -0.00012  -0.00012   2.08894
   A32        2.08713  -0.00000   0.00000   0.00001   0.00001   2.08715
   A33        2.10699  -0.00000   0.00000   0.00011   0.00011   2.10710
   A34        2.11810  -0.00000   0.00000  -0.00007  -0.00007   2.11803
   A35        2.07267   0.00000   0.00000   0.00010   0.00010   2.07277
   A36        2.09242   0.00000   0.00000  -0.00003  -0.00003   2.09239
   A37        2.07515   0.00000   0.00000   0.00010   0.00010   2.07525
   A38        2.10480  -0.00000   0.00000   0.00003   0.00003   2.10483
   A39        2.10324   0.00000   0.00000  -0.00013  -0.00013   2.10311
   A40        2.10192   0.00000   0.00000  -0.00006  -0.00006   2.10186
   A41        2.09890  -0.00000   0.00000   0.00008   0.00008   2.09898
   A42        2.08236   0.00000   0.00000  -0.00002  -0.00002   2.08234
   A43        2.10736  -0.00000   0.00000  -0.00008  -0.00008   2.10728
   A44        2.08596   0.00000   0.00000  -0.00010  -0.00010   2.08586
   A45        2.08986   0.00000   0.00000   0.00018   0.00018   2.09005
    D1       -0.02404   0.00000   0.00000   0.00650   0.00650  -0.01755
    D2        3.12913  -0.00000   0.00000   0.00489   0.00489   3.13402
    D3       -3.00272   0.00001   0.00000   0.01322   0.01322  -2.98950
    D4        0.15045   0.00000   0.00000   0.01161   0.01161   0.16206
    D5       -1.51579   0.00002   0.00000   0.02327   0.02329  -1.49250
    D6        2.73935   0.00003   0.00000   0.02903   0.02904   2.76839
    D7        0.33550  -0.00001   0.00000   0.01656   0.01654   0.35205
    D8        1.46409   0.00001   0.00000   0.01641   0.01642   1.48051
    D9       -0.56396   0.00002   0.00000   0.02217   0.02217  -0.54179
   D10       -2.96781  -0.00001   0.00000   0.00970   0.00968  -2.95813
   D11        3.13689  -0.00000   0.00000   0.01416   0.01416  -3.13214
   D12       -0.01828  -0.00000   0.00000   0.01185   0.01185  -0.00643
   D13        0.00704  -0.00001   0.00000   0.01254   0.01254   0.01958
   D14        3.13506  -0.00001   0.00000   0.01023   0.01023  -3.13789
   D15        2.44712   0.00028   0.00000   0.24961   0.24964   2.69676
   D16        0.33309   0.00029   0.00000   0.23962   0.23967   0.57276
   D17       -1.66960   0.00031   0.00000   0.25022   0.25016  -1.41944
   D18       -1.59851   0.00028   0.00000   0.24632   0.24635  -1.35217
   D19        2.57064   0.00029   0.00000   0.23633   0.23637   2.80702
   D20        0.56796   0.00030   0.00000   0.24693   0.24687   0.81482
   D21        0.36882   0.00029   0.00000   0.24604   0.24606   0.61488
   D22       -1.74521   0.00030   0.00000   0.23605   0.23608  -1.50912
   D23        2.53529   0.00032   0.00000   0.24665   0.24658   2.78187
   D24        1.06926  -0.00001   0.00000   0.00947   0.00947   1.07872
   D25        3.09861  -0.00002   0.00000   0.01632   0.01634   3.11495
   D26       -1.06677  -0.00001   0.00000   0.01910   0.01908  -1.04769
   D27       -3.11036  -0.00001   0.00000   0.00919   0.00918  -3.10118
   D28       -1.08102  -0.00002   0.00000   0.01604   0.01606  -1.06496
   D29        1.03679  -0.00001   0.00000   0.01882   0.01880   1.05559
   D30       -1.00641  -0.00000   0.00000   0.01043   0.01043  -0.99599
   D31        1.02293  -0.00001   0.00000   0.01727   0.01730   1.04024
   D32        3.14074   0.00000   0.00000   0.02006   0.02004  -3.12241
   D33       -0.03775  -0.00002   0.00000   0.01674   0.01674  -0.02101
   D34        3.10708  -0.00001   0.00000   0.01358   0.01358   3.12065
   D35        3.11738  -0.00001   0.00000   0.01904   0.01904   3.13642
   D36       -0.02098  -0.00001   0.00000   0.01588   0.01588  -0.00510
   D37       -3.14042   0.00000   0.00000  -0.00367  -0.00367   3.13909
   D38        0.00025   0.00000   0.00000  -0.00333  -0.00333  -0.00308
   D39       -0.00212  -0.00000   0.00000  -0.00045  -0.00045  -0.00257
   D40        3.13855  -0.00000   0.00000  -0.00011  -0.00011   3.13844
   D41        3.13970  -0.00000   0.00000   0.00311   0.00311  -3.14038
   D42       -0.00174  -0.00000   0.00000   0.00294   0.00294   0.00120
   D43        0.00116   0.00000   0.00000   0.00012   0.00012   0.00128
   D44       -3.14028  -0.00000   0.00000  -0.00005  -0.00005  -3.14032
   D45        0.00134   0.00000   0.00000   0.00033   0.00033   0.00168
   D46       -3.14148  -0.00000   0.00000   0.00089   0.00089  -3.14058
   D47       -3.13932   0.00000   0.00000  -0.00001  -0.00001  -3.13933
   D48        0.00104  -0.00000   0.00000   0.00055   0.00055   0.00160
   D49        0.00045  -0.00000   0.00000   0.00012   0.00012   0.00057
   D50        3.14089   0.00000   0.00000   0.00004   0.00004   3.14093
   D51       -3.13990   0.00000   0.00000  -0.00045  -0.00045  -3.14035
   D52        0.00054   0.00000   0.00000  -0.00053  -0.00053   0.00001
   D53       -0.00144   0.00000   0.00000  -0.00045  -0.00045  -0.00188
   D54        3.14070   0.00000   0.00000  -0.00028  -0.00028   3.14042
   D55        3.14131  -0.00000   0.00000  -0.00037  -0.00037   3.14094
   D56        0.00026  -0.00000   0.00000  -0.00020  -0.00020   0.00005
   D57        0.00063  -0.00000   0.00000   0.00033   0.00033   0.00096
   D58       -3.14112  -0.00000   0.00000   0.00050   0.00050  -3.14061
   D59       -3.14150  -0.00000   0.00000   0.00017   0.00017  -3.14133
   D60       -0.00006  -0.00000   0.00000   0.00034   0.00034   0.00028
         Item               Value     Threshold  Converged?
 Maximum Force            0.000318     0.000450     YES
 RMS     Force            0.000079     0.000300     YES
 Maximum Displacement     0.762314     0.001800     NO 
 RMS     Displacement     0.140296     0.001200     NO 
 Predicted change in Energy=-8.369642D-04
 GradGradGradGradGradGradGradGradGradGradGradGradGradGradGradGradGradGrad

                          Input orientation:                          
 ---------------------------------------------------------------------
 Center     Atomic      Atomic             Coordinates (Angstroms)
 Number     Number       Type             X           Y           Z
 ---------------------------------------------------------------------
      1          6           0       -1.199928   -0.448869   -0.180074
      2          6           0        0.071425    0.237851   -0.279938
      3          8           0        0.130476    1.430859   -0.592268
      4          6           0       -2.352377    0.269349   -0.422750
      5          6           0       -3.797419    2.373851    0.823603
      6          1           0       -4.681492    2.061573    0.269979
      7          1           0       -4.108687    2.894723    1.729031
      8          1           0       -3.212699    3.053546    0.205863
      9          7           0       -2.992124    1.193260    1.129487
     10          1           0       -2.140795    1.431354    1.625023
     11          1           0       -3.507162    0.523856    1.690288
     12         17           0       -3.830368   -0.563549   -0.869112
     13          1           0       -2.217799    1.180231   -0.989554
     14         17           0       -1.294358   -2.068816    0.479430
     15          7           0        1.188496   -0.515499   -0.020874
     16          6           0        2.535647   -0.142282   -0.025564
     17          6           0        2.995138    1.137958   -0.337422
     18          6           0        4.357221    1.405427   -0.309464
     19          6           0        5.278061    0.424140    0.021133
     20          6           0        4.819678   -0.850306    0.328694
     21          6           0        3.466349   -1.131855    0.306785
     22          1           0        1.013815   -1.477188    0.220605
     23          1           0        2.288201    1.907986   -0.597875
     24          1           0        4.697278    2.404570   -0.553219
     25          1           0        6.337093    0.645957    0.038512
     26          1           0        5.520020   -1.634079    0.589019
     27          1           0        3.120593   -2.130148    0.549612
 ---------------------------------------------------------------------
                    Distance matrix (angstroms):
                    1          2          3          4          5
     1  C    0.000000
     2  C    1.448411   0.000000
     3  O    2.339499   1.234628   0.000000
     4  C    1.379444   2.428209   2.746343   0.000000
     5  C    3.965107   4.555025   4.280454   2.840858   0.000000
     6  H    4.315803   5.120409   4.929128   3.019391   1.088853
     7  H    4.825470   5.344929   5.049934   3.821960   1.089952
     8  H    4.057968   4.353115   3.800914   2.981118   1.088801
     9  N    2.761069   3.504942   3.573727   1.916332   1.461459
    10  H    2.771072   3.153924   3.174121   2.363979   2.067602
    11  H    3.125344   4.095103   4.389205   2.421411   2.063461
    12  Cl   2.721606   4.026581   4.443264   1.754257   3.390383
    13  H    2.084535   2.575302   2.394795   1.081242   2.684674
    14  Cl   1.751597   2.786164   3.927648   2.720358   5.110877
    15  N    2.394651   1.372041   2.287839   3.649009   5.824160
    16  C    3.751319   2.506312   2.929296   4.921380   6.867295
    17  C    4.487913   3.059673   2.890853   5.418273   7.001018
    18  C    5.859784   4.442089   4.236272   6.806042   8.289744
    19  C    6.539646   5.218660   5.280850   7.644905   9.317171
[...]
 002801,-0.00002082,-0.00000783,-0.00001254,0.00006236,0.00006618,-0.00
 002227,0.00517857,-0.00686914,0.00373011,0.01160549,0.05948065,-0.0137
 9317,-0.03853011,-0.03181201,0.00389861,0.05049667,-0.05307665,0.02012
 277,-0.10055532,-0.30038989,0.05408198,-0.02412263,0.68228540,0.000025
 47,0.00004717,-0.00040618,-0.00061745,0.00029035,0.00189111,-0.0000586
 2,-0.00005840,-0.00016823,-0.00003346,-0.00001884,-0.00005101,-0.00000
 640,0.00000008,-0.00001856,0.00000109,-0.00000013,0.00000008,0.0000049
 0,-0.00000601,0.00000226,-0.00000054,-0.00000106,0.00000223,0.00005150
 ,-0.00004402,-0.00003419,0.00000259,-0.00000045,0.00000068,0.00000020,
 -0.00000270,-0.00000173,-0.00006362,0.00000734,0.00000515,0.00000686,-
 0.00001565,-0.00001233,-0.00001287,0.00000329,0.00002764,-0.00104633,0
 .00323164,0.00466615,-0.00715099,-0.00945133,0.00598324,0.00712288,0.0
 0436314,-0.00597585,-0.00874916,0.01591958,0.00312238,0.01942332,0.059
 47185,-0.07957679,0.05130289,-0.14465064,0.18395004,-0.00451931,0.0018
 9289,-0.00121947,0.00770041,-0.01109455,0.00332392,-0.00117311,0.00487
 415,-0.00142697,0.00247177,-0.00213451,-0.00074047,0.00017883,-0.00007
 181,0.00044750,-0.00001799,0.00000150,-0.00002293,-0.00013868,0.000157
 54,-0.00003348,0.00000277,0.00001153,-0.00004991,-0.00101751,0.0007914
 6,0.00094021,0.00000516,-0.00009056,-0.00015502,-0.00000429,0.00008430
 ,-0.00000192,-0.00070320,-0.00005323,0.00003941,0.00004039,0.00007953,
 0.00020860,-0.00001695,-0.00018861,0.00015607,-0.06415516,0.03447674,-
 0.01449711,-0.18825209,0.04341109,-0.02060618,0.06327871,0.04212245,-0
 .00681718,-0.06648448,0.02383972,-0.01113375,-0.00725364,-0.08808106,0
 .02202854,-0.34749591,-0.00952366,-0.02007196,0.71087777,0.00003087,0.
 00057922,-0.00010309,-0.00498259,-0.00122227,0.00039531,0.00111789,-0.
 00008036,0.00002394,-0.00041807,-0.00006091,0.00002567,-0.00001033,0.0
 0000147,-0.00004049,0.00000168,-0.00000084,0.00000113,0.00001036,-0.00
 000938,0.00000523,-0.00000014,-0.00000054,0.00000330,0.00008515,-0.000
 01246,-0.00000967,-0.00000245,0.00000579,0.00001522,0.00000153,-0.0000
 0988,-0.00000790,-0.00004067,-0.00000038,-0.00002945,0.00001106,-0.000
 00722,-0.00002655,0.00005676,-0.00006762,0.00001775,0.00082265,0.01220
 132,-0.00104152,0.11578639,-0.22990664,0.05073755,-0.00144647,-0.04328
 556,0.01382659,0.01927606,-0.00946562,0.00248197,-0.03564303,0.0128153
 8,-0.00385343,-0.07750273,-0.13569305,0.01337174,0.04925462,0.68598086
 ,-0.00036314,0.00001399,0.00002926,0.00183205,-0.00008183,0.00182150,-
 0.00034975,0.00027938,-0.00054115,0.00028109,-0.00020599,-0.00012934,0
 .00001725,-0.00000691,0.00004228,-0.00000167,0.00000102,-0.00000237,-0
 .00001230,0.00001603,-0.00000341,-0.00000040,0.00000040,-0.00000622,-0
 .00009137,0.00007487,0.00009736,-0.00000300,-0.00000991,-0.00001093,-0
 .00000179,0.00001112,-0.00000113,-0.00004303,0.00000379,0.00000151,-0.
 00000206,0.00001278,0.00003464,-0.00003146,0.00000650,-0.00001684,-0.0
 0577522,0.00156711,0.00683986,-0.03973867,0.04498829,-0.08706167,0.004
 63902,0.01729282,0.00527027,-0.00987474,0.00283935,-0.00731783,0.00814
 745,-0.00802088,0.01150862,-0.00203982,0.01877473,-0.06727027,0.032416
 39,-0.14221094,0.17284477,-0.00419442,0.00248079,-0.00156382,0.0194636
 9,0.02547012,-0.00493123,-0.00749204,0.00588361,-0.00249983,0.00003417
 ,-0.00055400,0.00049137,-0.00002105,0.00001849,-0.00000471,-0.00000396
 ,0.00000414,0.00000404,0.00000571,-0.00001002,-0.00000583,0.00000621,-
 0.00000274,0.00000563,-0.00000318,-0.00004496,-0.00010160,0.00004987,0
 .00001223,-0.00004054,-0.00004206,0.00005556,0.00004440,0.00009140,-0.
 00019131,0.00012062,0.00031790,-0.00008720,0.00008408,-0.00197262,-0.0
 0195634,0.00049560,-0.08363556,-0.06434458,0.01178288,-0.00694078,-0.0
 3391781,0.00868357,-0.00541233,0.00093457,-0.00080825,0.00056628,-0.00
 139972,0.00034816,0.00009445,0.00049887,-0.00013099,-0.00034428,0.0002
 4061,-0.00004399,0.00091441,-0.00284287,0.00095716,0.09024532,-0.00185
 709,0.00054297,-0.00062191,0.00014871,-0.01964722,0.00405159,0.0020867
 3,0.00178800,0.00134342,0.00107462,-0.00129570,-0.00031504,0.00005414,
 -0.00002065,0.00017546,-0.00000674,-0.00000101,-0.00000631,-0.00005184
 ,0.00006120,-0.00001543,0.00000488,0.00000717,-0.00001843,-0.00044887,
 0.00036867,0.00040597,0.00000042,-0.00003340,-0.00004269,-0.00001306,0
 .00004499,0.00001678,-0.00042294,-0.00001247,0.00002845,0.00001087,-0.
 00000992,0.00005493,-0.00251541,-0.00061941,0.00001772,-0.06559939,-0.
 41107636,0.10242890,-0.00459509,-0.00480388,0.00006575,0.00095488,0.00
 200184,0.00005645,0.00008935,-0.00018757,0.00036262,0.00039668,0.00040
 497,-0.00004436,-0.00036692,-0.00067750,-0.00004791,0.00320368,0.00241
 480,-0.00055143,0.06754308,0.43140074,0.00059236,-0.00037191,-0.000504
 26,0.00098539,0.00589121,-0.00656256,-0.00136481,0.00163695,0.00597324
 ,-0.00016001,0.00037624,-0.00025191,-0.00005159,-0.00001118,-0.0001317
 9,0.00000470,-0.00000019,0.00000496,0.00004144,-0.00004340,0.00001088,
 0.00000620,-0.00000234,0.00000961,0.00032250,-0.00034010,-0.00034932,0
 .00005378,-0.00000447,-0.00002578,-0.00000538,-0.00002042,0.00000419,-
 0.00021601,0.00003598,0.00005961,0.00004732,-0.00000170,-0.00012673,0.
 00066650,0.00013329,-0.00007242,0.01218701,0.10294063,-0.03714748,0.00
 084729,-0.00222269,-0.00221746,-0.00082650,0.00005825,0.00183652,-0.00
 005183,0.00020526,0.00099833,-0.00011284,-0.00003829,0.00010203,0.0001
 2194,-0.00001195,-0.00068249,-0.00070266,-0.00095555,-0.00029686,-0.01
 224770,-0.10742568,0.03971650,0.00070442,0.00025256,0.00009846,-0.0001
 7676,-0.00603968,0.00158228,-0.00530653,0.00343008,-0.00122624,-0.0006
 8168,0.00050987,0.00025597,-0.00005267,0.00002543,-0.00010686,0.000005
 59,-0.00000172,0.00000656,0.00003563,-0.00004200,0.00000583,0.00000005
 ,-0.00000205,0.00001295,0.00023479,-0.00023138,-0.00027910,-0.00001177
 ,0.00002544,0.00006086,0.00000098,-0.00001843,0.00001324,0.00016802,0.
 00004914,-0.00003760,-0.00003293,0.00002334,-0.00006554,0.00018662,0.0
 0031164,-0.00014276,-0.00144839,0.00189282,-0.00030622,0.01285629,-0.0
 1000337,0.00331795,-0.17673391,0.14129959,-0.04899296,-0.01340482,0.02
 129687,-0.00691036,-0.00400152,-0.00226471,-0.00033177,-0.00028673,-0.
 00088874,0.00027169,-0.00037973,-0.00279863,0.00021151,-0.00006514,0.0
 0015141,-0.00001591,0.18737979,0.00055010,0.00018698,0.00018030,-0.001
 25395,-0.00355087,0.00077573,0.00324612,0.00212528,-0.00039590,-0.0004
 0254,0.00031399,0.00019026,-0.00003545,0.00001938,-0.00006868,0.000003
 64,-0.00000192,0.00000498,0.00002306,-0.00002739,0.00000333,-0.0000001
 0,-0.00000099,0.00000873,0.00014594,-0.00014599,-0.00019257,-0.0000127
 8,0.00001929,0.00004500,0.00000183,-0.00001463,0.00000762,0.00010768,0
 .00003565,-0.00002417,-0.00002386,0.00002089,-0.00005795,0.00008240,0.
 00021072,-0.00007669,-0.00016335,0.00186411,-0.00148781,0.02076481,-0.
 01514475,0.00691282,0.13618680,-0.21774169,0.05907075,-0.00665018,0.00
 989579,-0.00247392,-0.00237596,0.00145131,0.00148261,-0.00111837,-0.00
 033837,-0.00023038,-0.00307445,-0.00358099,0.00241482,0.00008607,-0.00
 005924,-0.00007428,-0.14723197,0.22456077,-0.00005216,0.00010625,0.000
 41830,0.00033313,0.00034902,-0.00025463,-0.00119633,-0.00023829,-0.000
 09159,0.00003016,0.00000754,0.00001981,0.00000442,-0.00000171,0.000004
 81,-0.00000115,-0.00000084,0.00000093,-0.00000185,0.00000184,-0.000001
 18,0.00000190,0.00000104,-0.00000107,-0.00002639,0.00000068,-0.0000251
 3,0.00000681,0.00000372,-0.00000503,0.00000073,-0.00000325,0.00000031,
 -0.00001877,-0.00001972,0.00000426,0.00004758,0.00000122,-0.00001469,-
 0.00002112,-0.00004734,0.00007886,0.00025116,-0.00136782,-0.00350275,-
 0.00492945,0.00438550,0.00308688,-0.04763075,0.05948127,-0.05675658,0.
 00055744,-0.00021222,0.00280342,-0.00031866,0.00151379,0.00728431,0.00
 030881,-0.00024071,-0.00079035,0.00032976,0.00240838,0.00580259,-0.000
 00404,-0.00006636,-0.00031214,0.05214271,-0.06473635,0.04711004,-0.000
 25533,0.00006835,-0.00006206,0.00066417,-0.00038831,0.00015167,-0.0001
 0869,0.00021050,-0.00006775,0.00017468,-0.00015273,-0.00007080,0.00001
 382,-0.00000631,0.00003120,-0.00000121,0.00000027,-0.00000166,-0.00001
 012,0.00001168,-0.00000194,0.00000012,0.00000097,-0.00000394,-0.000071
 95,0.00006457,0.00007871,0.00000017,-0.00000657,-0.00001061,0.00000007
 ,0.00000506,-0.00000143,-0.00004983,-0.00000336,0.00000354,0.00000126,
 0.00000353,0.00001449,-0.00007516,-0.00001703,0.00001346,-0.00049523,-
 0.00155130,0.00036958,-0.00505760,-0.00042901,-0.00092274,-0.00600061,
 -0.02935139,0.00701783,-0.08979167,-0.08428221,0.01827102,0.01116059,0
 .01986372,-0.00469212,-0.00200795,0.00325793,-0.00161266,-0.00119502,0
 .00050586,-0.00013915,-0.00039294,0.00000675,-0.00002354,0.00115733,0.
 00056549,0.00029615,0.09103313,-0.00029371,0.00005634,-0.00007295,0.00
 059577,-0.00031913,0.00013662,-0.00018638,0.00013253,-0.00002842,0.000
 20321,-0.00016398,-0.00007526,0.00001463,-0.00000621,0.00003424,-0.000
 00145,0.00000017,-0.00000175,-0.00001091,0.00001268,-0.00000228,0.0000
 0018,0.00000102,-0.00000397,-0.00007980,0.00007034,0.00008525,0.000000
 13,-0.00000663,-0.00001163,-0.00000010,0.00000622,-0.00000086,-0.00004
 889,-0.00000573,0.00000675,0.00000085,0.00000348,0.00001655,-0.0000291
 7,-0.00001989,0.00001265,-0.00063566,-0.00017733,0.00003127,-0.0001880
 6,0.00238456,0.00142903,0.00051694,-0.00166509,0.00142574,-0.08464136,
 -0.29674348,0.06149529,-0.01037214,-0.01563791,0.00437752,0.00385278,-
 0.00119729,0.00258924,0.00041958,0.00044459,-0.00036931,-0.00004493,0.
 00005099,-0.00006114,-0.00004991,0.00042790,-0.00130480,0.09125102,0.3
 1280580,0.00005381,-0.00000997,0.00000756,-0.00010492,0.00005513,-0.00
 000784,0.00003668,0.00000224,0.00007348,-0.00003768,0.00003267,0.00001
 909,-0.00000270,0.00000078,-0.00000615,0.00000010,-0.00000003,0.000000
 24,0.00000213,-0.00000245,0.00000037,0.,-0.00000010,0.00000088,0.00001
 512,-0.00001309,-0.00001692,0.00000073,0.00000076,0.00000093,-0.000000
 01,-0.00000078,0.00000039,0.00000870,0.00000091,-0.00000209,-0.0000022
 4,-0.00000038,-0.00000162,0.00000499,0.00000315,-0.00000560,0.00011834
 ,-0.00005477,0.00012182,-0.00098616,0.00140279,0.00742495,-0.00087199,
 -0.00092406,0.00375658,0.01834756,0.06153272,-0.05390878,0.00331711,0.
 00675454,0.00246591,-0.00176082,0.00255944,0.00665613,-0.00013070,-0.0
 0035676,-0.00101837,-0.00000958,-0.00005532,-0.00014393,0.00046864,-0.
 00127041,-0.00412408,-0.01904770,-0.06846172,0.04343165,-0.00022753,0.
 00003086,-0.00005914,0.00040587,-0.00003712,0.00005178,-0.00035678,-0.
 00001989,-0.00001475,0.00015555,-0.00012919,-0.00006163,0.00001201,-0.
 00000535,0.00002635,-0.00000119,0.00000019,-0.00000146,-0.00000853,0.0
 0001006,-0.00000164,0.00000013,0.00000068,-0.00000309,-0.00006088,0.00
 005512,0.00006811,0.00000084,-0.00000531,-0.00001024,-0.00000002,0.000
 00480,-0.00000130,-0.00004049,-0.00000582,0.00000541,0.00000324,0.0000
 0098,0.00001401,-0.00002866,-0.00002651,0.00001388,-0.00037911,0.00004
 508,0.00004289,0.00077710,0.00048248,-0.00002480,-0.00046324,0.0034195
 5,-0.00150503,-0.01473719,-0.00698380,0.00049663,-0.33273708,-0.054475
 25,-0.00913714,-0.00577166,0.00105222,-0.00090075,0.00138007,-0.001905
 37,0.00004553,0.00002383,0.00001265,-0.00000436,-0.00061209,-0.0004340
 7,0.00003679,0.00084074,0.00029629,0.00032205,0.35159156,-0.00000198,0
 .00003128,0.00001871,0.00005421,-0.00026816,0.00004428,0.00020210,0.00
 018536,-0.00005114,-0.00000066,0.00000011,0.00000495,-0.00000033,0.000
 00005,0.00000035,-0.00000002,-0.00000011,0.00000006,0.00000001,0.,-0.0
 0000010,0.00000014,0.00000014,0.,-0.00000212,-0.00000038,-0.00000252,0
 .00000005,-0.00000009,0.00000030,-0.00000004,-0.00000014,0.00000046,-0
 .00000047,0.00000064,-0.00000100,-0.00000019,0.00000232,-0.00000206,0.
 00000079,0.00000961,-0.00000054,-0.00024888,0.00030487,-0.00036778,0.0
 0040869,-0.00136426,0.00023240,0.00260471,-0.00256319,0.00278342,0.023
 68757,0.00873499,0.00019786,-0.05449171,-0.06899453,0.00467089,-0.0294
 6871,-0.00070906,-0.00156432,-0.00120449,-0.00428489,0.00294016,0.0001
 4297,-0.00001691,0.00001401,0.00089070,0.00035593,0.00007020,-0.000553
 77,0.00061908,-0.00132006,0.05875499,0.06735446,-0.00000614,0.00002209
 ,0.00009711,0.00002485,0.00002038,-0.00012120,-0.00007623,-0.00005236,
 -0.00005089,0.00000736,0.00000367,0.00000977,0.00000023,-0.00000075,0.
 00000163,-0.00000025,-0.00000012,0.00000007,-0.00000027,0.00000043,-0.
 00000023,0.00000059,0.00000036,-0.00000016,-0.00000533,0.00000113,-0.0
 0000589,0.00000257,-0.00000067,-0.00000291,-0.00000040,-0.00000026,0.0
 0000036,-0.00000022,-0.00000416,0.00000078,0.00000525,0.00000215,-0.00
 000387,-0.00000448,-0.00000660,0.00001359,0.00012792,-0.00033936,-0.00
 093824,-0.00001266,0.00022647,-0.00065119,-0.00128748,0.00285814,0.006
 33332,-0.00763739,-0.00221015,0.00239952,-0.00909163,0.00467692,-0.037
 09273,0.00711761,0.00083463,0.00252921,-0.00011892,0.00286938,0.006445
 10,-0.00003648,0.00000537,0.00000380,-0.00032040,-0.00003026,0.0003206
 9,0.00054572,-0.00125151,-0.00382912,0.01025216,-0.00646614,0.02793991
 ,-0.00040596,0.00018151,-0.00011432,0.00041686,-0.00083482,0.00026199,
 -0.00006526,0.00029294,-0.00008589,0.00022214,-0.00022156,-0.00008556,
 0.00001787,-0.00000742,0.00004158,-0.00000168,0.00000007,-0.00000226,-
 0.00001328,0.00001559,-0.00000274,0.00000021,0.00000116,-0.00000474,-0
 .00009624,0.00008581,0.00010310,-0.00000014,-0.00000816,-0.00001393,0.
 00000003,0.00000727,-0.00000183,-0.00007192,-0.00000569,0.00000362,0.0
 0000288,0.00000580,0.00001832,-0.00003624,-0.00002554,0.00001728,-0.00
 160937,0.00157449,-0.00054625,-0.00382763,-0.00250602,-0.00026780,-0.0
 0064265,-0.00084721,0.00026125,0.00053576,-0.00271590,0.00017219,0.010
 96754,-0.00923851,0.00300750,-0.17452101,0.13047749,-0.04518985,-0.014
 76838,0.02423840,-0.00783864,0.00009508,0.00009727,-0.00001783,0.00005
 620,0.00012675,0.00005323,0.00035756,-0.00047775,0.00015406,0.00068696
 ,0.00067283,0.00019343,0.18163036,0.00014001,-0.00000749,0.00002771,-0
 .00043697,0.00013073,-0.00010723,0.00011429,-0.00008358,0.00004774,-0.
 00011435,0.00008132,0.00004270,-0.00000756,0.00000300,-0.00001806,0.00
 000074,-0.00000007,0.00000088,0.00000572,-0.00000672,0.00000127,-0.000
 00010,-0.00000049,0.00000201,0.00004287,-0.00003680,-0.00004550,0.0000
 0009,0.00000312,0.00000592,0.00000020,-0.00000343,0.00000022,0.0000208
 0,0.00000285,-0.00000472,-0.00000027,-0.00000193,-0.00000906,0.0000107
 8,0.00000857,-0.00000620,0.00031495,0.00025433,0.00000678,-0.00252978,
 0.00144770,0.00153026,-0.00076785,-0.00014651,-0.00031509,-0.00336695,
 -0.00379667,0.00269090,0.02077970,-0.01489834,0.00656747,0.13115080,-0
 .21002017,0.05558363,-0.00599260,0.00777064,-0.00160674,-0.00000158,-0
 .00001932,0.00000064,0.00010852,-0.00002486,-0.00026127,0.00098941,-0.
 00093457,0.00033001,-0.00017176,0.00080947,-0.00128997,-0.14074908,0.2
 1901051,-0.00006719,0.00001300,-0.00003671,0.00015943,-0.00014066,-0.0
 0009098,-0.00004174,0.00006428,0.00004448,0.00004897,-0.00003429,-0.00
 001151,0.00000323,-0.00000153,0.00000789,-0.00000043,0.00000005,-0.000
 00040,-0.00000241,0.00000274,-0.00000060,0.00000008,0.00000025,-0.0000
 0084,-0.00001863,0.00001412,0.00001663,0.00000045,-0.00000163,-0.00000
 287,0.00000007,0.00000158,0.00000029,-0.00001409,-0.00000164,0.0000027
 3,0.00000101,0.00000011,0.00000303,-0.00000614,-0.00000491,0.00000491,
 -0.00023094,0.00011273,0.00015002,-0.00027130,0.00153436,0.00755531,0.
 00023765,-0.00032556,-0.00099895,0.00033896,0.00274204,0.00669156,-0.0
 0491722,0.00418073,0.00227727,-0.04536503,0.05552541,-0.05696845,0.000
 16889,0.00079306,0.00331025,0.00000899,0.00000703,-0.00002241,0.000059
 51,-0.00026234,-0.00097427,-0.00023272,0.00021405,-0.00005721,0.000415
 40,-0.00122070,-0.00367233,0.04941366,-0.06189827,0.04689323,0.0002358
 3,-0.00007994,0.00005405,-0.00042070,0.00043000,-0.00007912,-0.0000146
 0,-0.00031482,0.00006375,-0.00016075,0.00013891,0.00006249,-0.00001223
 ,0.00000516,-0.00002844,0.00000120,-0.00000006,0.00000149,0.00000912,-
 0.00001069,0.00000188,-0.00000009,-0.00000090,0.00000328,0.00006762,-0
 .00005944,-0.00007185,0.00000128,0.00000492,0.00000857,-0.00000035,-0.
 00000463,0.00000102,0.00004394,0.00000274,-0.00000301,0.00000121,-0.00
 000611,-0.00001248,0.00005058,-0.00000679,-0.00000152,0.00238112,0.001
 85140,-0.00008280,0.00824038,0.01827223,-0.00450624,-0.00209307,0.0029
 0235,-0.00136748,-0.00124684,0.00047170,-0.00015346,-0.00542482,-0.000
 36296,-0.00093529,-0.00534330,-0.03022948,0.00734528,-0.08927482,-0.08
 360592,0.01775879,-0.00138795,0.00004124,-0.00007546,0.00040897,0.0008
 8634,-0.00020012,0.00010965,-0.00009116,0.00010449,-0.00045345,-0.0014
 4639,0.00032060,0.00107028,0.00045994,0.00031154,0.09321178,0.00005492
 ,-0.00005200,0.00005276,0.00034825,0.00006583,-0.00021847,0.00001205,0
 .00036702,-0.00004126,-0.00000881,0.00002459,0.00001243,-0.00000096,0.
 00000016,-0.00000253,0.00000004,-0.00000005,0.00000027,0.00000084,-0.0
 0000117,0.00000013,0.00000004,0.00000019,0.00000017,0.00000351,-0.0000
 0592,-0.00000901,-0.00000020,0.00000041,0.00000160,0.00000063,-0.00000
 122,0.00000057,0.00001177,0.00000169,-0.00000211,-0.00000047,0.0000046
 7,-0.00000142,-0.00000010,0.00001292,-0.00000665,-0.00172099,0.0012466
 0,-0.00128093,-0.01148582,-0.01626148,0.00456207,0.00387042,-0.0014357
 0,0.00211994,0.00079174,0.00034215,-0.00025189,-0.00104966,0.00234226,
 0.00131277,0.00036899,-0.00163636,0.00121276,-0.08311127,-0.29452545,0
 .06182680,0.00202695,-0.00060578,0.00029283,-0.00069481,-0.00085630,0.
 00017022,-0.00006317,-0.00013844,-0.00020524,0.00003349,-0.00020659,0.
 00013118,-0.00013974,0.00045873,-0.00131402,0.09075236,0.31085924,-0.0
 0001028,0.00002592,0.00009944,-0.00002966,-0.00020417,-0.00079096,-0.0
 0003410,-0.00007339,0.00022035,-0.00001049,0.00001509,0.00002188,0.000
 00150,-0.00000052,0.00000305,-0.00000045,-0.00000026,0.00000022,-0.000
 00076,0.00000076,-0.00000053,0.00000055,0.00000061,-0.00000020,-0.0000
 1038,0.00000534,-0.00000049,0.00000127,-0.00000005,-0.00000126,0.00000
 056,-0.00000069,0.00000068,0.00001717,-0.00000525,-0.00000404,-0.00000
 131,0.00000563,0.00000292,0.00001104,-0.00000183,-0.00000047,0.0008721
 8,-0.00102226,-0.00279296,0.00328757,0.00695047,0.00284437,-0.00163974
 ,0.00206894,0.00480616,-0.00021392,-0.00029110,-0.00079791,-0.00075353
 ,0.00139071,0.00721166,-0.00076843,-0.00116904,0.00312013,0.01766934,0
 .06165912,-0.05037161,-0.00059791,0.00019045,0.00012787,0.00022758,0.0
 0028478,-0.00008173,0.00009743,-0.00020858,-0.00083828,-0.00006568,0.0
 0001831,0.00027390,0.00047042,-0.00127602,-0.00412009,-0.01851996,-0.0
 6836298,0.04106788\\0.00000069,-0.00000023,-0.00000192,-0.00000015,0.0
 0000072,-0.00000066,0.00000062,0.00000115,0.00000107,-0.00000118,0.000
 00203,-0.00000169,-0.00000169,-0.00000180,-0.00000029,0.00000009,0.000
 00007,-0.00000116,-0.00000097,-0.00000268,0.00000069,-0.00000017,-0.00
 000002,0.00000096,0.00000030,-0.00000152,-0.00000052,-0.00000077,-0.00
 000228,-0.00000014,-0.00000071,-0.00000252,-0.00000157,0.00000140,0.00
 000084,-0.00000395,0.00000095,0.00000177,-0.00000078,-0.00000003,-0.00
 000057,-0.00000440,0.00000041,0.00000021,-0.00000082,0.00000008,0.0000
 0033,0.00000025,0.00000023,0.00000089,0.00000252,0.00000015,0.00000093
 ,0.00000343,0.00000010,0.00000045,0.00000254,0.00000003,0.00000003,0.0
 0000059,0.00000008,0.,-0.00000071,0.00000006,0.00000003,-0.00000245,0.
 00000031,0.00000114,0.00000286,0.00000028,0.00000122,0.00000503,0.0000
 0005,0.00000050,0.00000348,-0.00000011,-0.00000030,-0.00000016,-0.0000
 0002,-0.00000038,-0.00000219\\\@


 The number of Unix installations has grown to 10,
  with more expected.
                  -- The Unix Programmer's Manual,
                     2nd Edition, June, 1972.
 Job cpu time:       0 days 11 hours  8 minutes 33.3 seconds.
 Elapsed time:       0 days  0 hours 41 minutes 52.0 seconds.
 File lengths (MBytes):  RWF=    892 Int=      0 D2E=      0 Chk=     38 Scr=      1
 Normal termination of Gaussian 16 at Thu Feb 25 16:48:46 2021.
