environment: line 0: unalias: gv: not found
environment: line 0: unalias: sl: not found
GAUSS_SCRDIR =
GAUSS_PDEF =
GAUSS_MDEF =
 Entering Gaussian System, Link 0=g16
 Initial command:
 /apps/gaussian/g16/C.01/g16/l1.exe "/local/jobs/107291/Gau-838536.inp" -scrdir="/local/jobs/107291/"
 Entering Link 1 = /apps/gaussian/g16/C.01/g16/l1.exe PID=    838539.
  
 Copyright (c) 1988-2019, Gaussian, Inc.  All Rights Reserved.
  
 This is part of the Gaussian(R) 16 program.  It is based on
 the Gaussian(R) 09 system (copyright 2009, Gaussian, Inc.),
 the Gaussian(R) 03 system (copyright 2003, Gaussian, Inc.),
 the Gaussian(R) 98 system (copyright 1998, Gaussian, Inc.),
 the Gaussian(R) 94 system (copyright 1995, Gaussian, Inc.),
 the Gaussian 92(TM) system (copyright 1992, Gaussian, Inc.),
 the Gaussian 90(TM) system (copyright 1990, Gaussian, Inc.),
 the Gaussian 88(TM) system (copyright 1988, Gaussian, Inc.),
 the Gaussian 86(TM) system (copyright 1986, Carnegie Mellon
 University), and the Gaussian 82(TM) system (copyright 1983,
 Carnegie Mellon University). Gaussian is a federally registered
 trademark of Gaussian, Inc.
  
 This software contains proprietary and confidential information,
 including trade secrets, belonging to Gaussian, Inc.
  
 This software is provided under written license and may be
 used, copied, transmitted, or stored only in accord with that
 written license.
  
 The following legend is applicable only to US Government
 contracts under FAR:
  
                    RESTRICTED RIGHTS LEGEND
  
 Use, reproduction and disclosure by the US Government is
 subject to restrictions as set forth in subparagraphs (a)
 and (c) of the Commercial Computer Software - Restricted
 Rights clause in FAR 52.227-19.
  
 Gaussian, Inc.
 340 Quinnipiac St., Bldg. 40, Wallingford CT 06492
  
  
 ---------------------------------------------------------------
 Warning -- This program may not be used in any manner that
 competes with the business of Gaussian, Inc. or will provide
 assistance to any competitor of Gaussian, Inc.  The licensee
 of this program is prohibited from giving any competitor of
 Gaussian, Inc. access to this program.  By using this program,
 the user acknowledges that Gaussian, Inc. is engaged in the
 business of creating and licensing software in the field of
 computational chemistry and represents and warrants to the
 licensee that it is not a competitor of Gaussian, Inc. and that
 it will not use this program in any manner prohibited above.
 ---------------------------------------------------------------
  

 Cite this work as:
 Gaussian 16, Revision C.01,
 M. J. Frisch, G. W. Trucks, H. B. Schlegel, G. E. Scuseria, 
 M. A. Robb, J. R. Cheeseman, G. Scalmani, V. Barone, 
 G. A. Petersson, H. Nakatsuji, X. Li, M. Caricato, A. V. Marenich, 
 J. Bloino, B. G. Janesko, R. Gomperts, B. Mennucci, H. P. Hratchian, 
 J. V. Ortiz, A. F. Izmaylov, J. L. Sonnenberg, D. Williams-Young, 
 F. Ding, F. Lipparini, F. Egidi, J. Goings, B. Peng, A. Petrone, 
 T. Henderson, D. Ranasinghe, V. G. Zakrzewski, J. Gao, N. Rega, 
 G. Zheng, W. Liang, M. Hada, M. Ehara, K. Toyota, R. Fukuda, 
 J. Hasegawa, M. Ishida, T. Nakajima, Y. Honda, O. Kitao, H. Nakai, 
 T. Vreven, K. Throssell, J. A. Montgomery, Jr., J. E. Peralta, 
 F. Ogliaro, M. J. Bearpark, J. J. Heyd, E. N. Brothers, K. N. Kudin, 
 V. N. Staroverov, T. A. Keith, R. Kobayashi, J. Normand, 
 K. Raghavachari, A. P. Rendell, J. C. Burant, S. S. Iyengar, 
 J. Tomasi, M. Cossi, J. M. Millam, M. Klene, C. Adamo, R. Cammi, 
 J. W. Ochterski, R. L. Martin, K. Morokuma, O. Farkas, 
 J. B. Foresman, and D. J. Fox, Gaussian, Inc., Wallingford CT, 2019.
 
 ******************************************
 Gaussian 16:  ES64L-G16RevC.01  3-Jul-2019
                 3-Jun-2022 
 ******************************************
 %nprocshared=12
 Will use up to   12 processors via shared memory.
 %mem=60GB
 ----------------------------------------------------------------------
 # wb97xd def2tzvp opt=(ts, noeigen, calcfc, maxcycles=100, maxstep=10)
  freq=noraman scrf=(iefpcm, solvent=water)
 ----------------------------------------------------------------------
 1/5=1,6=100,8=10,10=4,11=1,18=20,26=3,38=1/1,3;
 2/9=110,12=2,17=6,18=5,40=1/2;
 3/5=44,7=101,11=2,25=1,30=1,70=2201,71=2,72=1,74=-58,140=1/1,2,3;
 4//1;
 5/5=2,38=5,53=1/2;
 8/6=4,10=90,11=11/1;
 11/6=1,8=1,9=11,15=111,16=1/1,2,10;
 10/6=1,13=1/2;
 6/7=2,8=2,9=2,10=2,28=1/1;
 7/10=1,25=1/1,2,3,16;
 1/5=1,6=100,8=10,10=4,11=1,18=20,26=3/3(2);
 2/9=110/2;
 99//99;
 2/9=110/2;
 3/5=44,7=101,11=2,25=1,30=1,70=2205,71=1,72=1,74=-58/1,2,3;
 4/5=5,16=3,69=1/1;
 5/5=2,38=5,53=1/2;
 7//1,2,3,16;
 1/5=1,6=100,8=10,11=1,18=20,26=3/3(-5);
 2/9=110/2;
 6/7=2,8=2,9=2,10=2,19=2,28=1/1;
 99/9=1/99;
 ---------
 TS-88.out
 ---------
 Symbolic Z-matrix:
 Charge =  0 Multiplicity = 1
 C                     0.23857   0.15744  -0.47036 
 C                     1.62858   0.12455  -1.01576 
 O                     1.8799    0.33489  -2.19323 
 C                    -0.46969  -1.0398   -0.42669 
 C                    -1.87311  -2.53379  -2.58568 
 H                    -2.15281  -2.48188  -3.63953 
 H                    -1.32298  -3.45694  -2.41486 
 H                    -2.77723  -2.54642  -1.97847 
 N                    -1.04411  -1.39424  -2.17663 
 H                    -0.15899  -1.3996   -2.67312 
 H                    -1.49099  -0.52264  -2.43554 
 C                    -1.80111  -1.05764   0.28197 
 C                    -2.89286  -0.32084  -0.17417 
 C                    -4.09538  -0.31681   0.5125 
 C                    -4.2353   -1.05085   1.6816 
 C                    -3.16023  -1.79084   2.14772 
 C                    -1.96009  -1.79777   1.4509 
 H                    -2.80773   0.28738  -1.06511 
 H                    -4.92485   0.26733   0.13405 
 H                    -5.17374  -1.0476    2.22131 
 H                    -3.25218  -2.37015   3.05797 
 H                    -1.13614  -2.38119   1.83923 
 C                     0.33313  -2.32367  -0.26471 
 H                     0.7895   -2.36225   0.72421 
 H                    -0.29516  -3.20537  -0.38374 
 H                     1.14202  -2.38434  -0.9935 
 C                    -0.30947   1.51529  -0.26252 
 C                    -0.15349   2.53108  -1.21492 
 C                    -0.62462   3.81745  -0.9904 
 C                    -1.27706   4.13166   0.19224 
 C                    -1.43205   3.14351   1.15705 
 C                    -0.94322   1.86689   0.93898 
 H                     0.33891   2.30039  -2.15115 
 H                    -0.48904   4.57581  -1.75257 
 H                    -1.65108   5.1329    0.3656 
 H                    -1.92206   3.37461   2.09559 
 H                    -1.04746   1.11858   1.71446 
 C                     2.76259  -0.1437   -0.06908 
 C                     2.55723  -0.15283   1.30768 
 C                     3.6146   -0.38656   2.17389 
 C                     4.88461  -0.62253   1.66789 
 C                     5.09802  -0.61907   0.29411 
 C                     4.04342  -0.3762   -0.56831 
 H                     1.5591    0.02499   1.68766 
 H                     3.44751  -0.38683   3.24347 
 H                     5.71029  -0.81055   2.34281 
 H                     6.08856  -0.80677  -0.10049 
 H                     4.19768  -0.36865  -1.63949 
 
 Add virtual bond connecting atoms N9         and C4         Dist= 3.54D+00.

 GradGradGradGradGradGradGradGradGradGradGradGradGradGradGradGradGradGrad
 Berny optimization.
 Initialization pass.
                           ----------------------------
                           !    Initial Parameters    !
                           ! (Angstroms and Degrees)  !
 --------------------------                            --------------------------
 ! Name  Definition              Value          Derivative Info.                !
 --------------------------------------------------------------------------------
 ! R1    R(1,2)                  1.4935         calculate D2E/DX2 analytically  !
 ! R2    R(1,4)                  1.3917         calculate D2E/DX2 analytically  !
 ! R3    R(1,27)                 1.479          calculate D2E/DX2 analytically  !
 ! R4    R(2,3)                  1.2222         calculate D2E/DX2 analytically  !
 ! R5    R(2,38)                 1.5014         calculate D2E/DX2 analytically  !
 ! R6    R(4,9)                  1.8756         calculate D2E/DX2 analytically  !
 ! R7    R(4,12)                 1.5084         calculate D2E/DX2 analytically  !
 ! R8    R(4,23)                 1.5229         calculate D2E/DX2 analytically  !
 ! R9    R(5,6)                  1.0916         calculate D2E/DX2 analytically  !
 ! R10   R(5,7)                  1.0881         calculate D2E/DX2 analytically  !
 ! R11   R(5,8)                  1.0892         calculate D2E/DX2 analytically  !
 ! R12   R(5,9)                  1.4674         calculate D2E/DX2 analytically  !
 ! R13   R(9,10)                 1.0149         calculate D2E/DX2 analytically  !
 ! R14   R(9,11)                 1.0131         calculate D2E/DX2 analytically  !
 ! R15   R(12,13)                1.3939         calculate D2E/DX2 analytically  !
 ! R16   R(12,17)                1.3926         calculate D2E/DX2 analytically  !
 ! R17   R(13,14)                1.3848         calculate D2E/DX2 analytically  !
 ! R18   R(13,18)                1.0821         calculate D2E/DX2 analytically  !
 ! R19   R(14,15)                1.3875         calculate D2E/DX2 analytically  !
 ! R20   R(14,19)                1.0828         calculate D2E/DX2 analytically  !
 ! R21   R(15,16)                1.3859         calculate D2E/DX2 analytically  !
 ! R22   R(15,20)                1.0826         calculate D2E/DX2 analytically  !
 ! R23   R(16,17)                1.3878         calculate D2E/DX2 analytically  !
 ! R24   R(16,21)                1.0829         calculate D2E/DX2 analytically  !
 ! R25   R(17,22)                1.0817         calculate D2E/DX2 analytically  !
 ! R26   R(23,24)                1.0898         calculate D2E/DX2 analytically  !
 ! R27   R(23,25)                1.0892         calculate D2E/DX2 analytically  !
 ! R28   R(23,26)                1.0905         calculate D2E/DX2 analytically  !
 ! R29   R(27,28)                1.4012         calculate D2E/DX2 analytically  !
 ! R30   R(27,32)                1.4032         calculate D2E/DX2 analytically  !
 ! R31   R(28,29)                1.3882         calculate D2E/DX2 analytically  !
 ! R32   R(28,33)                1.0827         calculate D2E/DX2 analytically  !
 ! R33   R(29,30)                1.3867         calculate D2E/DX2 analytically  !
 ! R34   R(29,34)                1.0837         calculate D2E/DX2 analytically  !
 ! R35   R(30,31)                1.3897         calculate D2E/DX2 analytically  !
 ! R36   R(30,35)                1.0828         calculate D2E/DX2 analytically  !
 ! R37   R(31,32)                1.3843         calculate D2E/DX2 analytically  !
 ! R38   R(31,36)                1.0837         calculate D2E/DX2 analytically  !
 ! R39   R(32,37)                1.0827         calculate D2E/DX2 analytically  !
 ! R40   R(38,39)                1.392          calculate D2E/DX2 analytically  !
 ! R41   R(38,43)                1.3942         calculate D2E/DX2 analytically  !
 ! R42   R(39,40)                1.3867         calculate D2E/DX2 analytically  !
 ! R43   R(39,44)                1.0827         calculate D2E/DX2 analytically  !
 ! R44   R(40,41)                1.3873         calculate D2E/DX2 analytically  !
 ! R45   R(40,45)                1.0826         calculate D2E/DX2 analytically  !
 ! R46   R(41,42)                1.3903         calculate D2E/DX2 analytically  !
 ! R47   R(41,46)                1.0829         calculate D2E/DX2 analytically  !
 ! R48   R(42,43)                1.3838         calculate D2E/DX2 analytically  !
 ! R49   R(42,47)                1.0826         calculate D2E/DX2 analytically  !
 ! R50   R(43,48)                1.0823         calculate D2E/DX2 analytically  !
 ! A1    A(2,1,4)              117.7841         calculate D2E/DX2 analytically  !
 ! A2    A(2,1,27)             114.6081         calculate D2E/DX2 analytically  !
 ! A3    A(4,1,27)             126.6425         calculate D2E/DX2 analytically  !
 ! A4    A(1,2,3)              122.6415         calculate D2E/DX2 analytically  !
 ! A5    A(1,2,38)             118.4657         calculate D2E/DX2 analytically  !
 ! A6    A(3,2,38)             118.8742         calculate D2E/DX2 analytically  !
 ! A7    A(1,4,9)              106.8068         calculate D2E/DX2 analytically  !
 ! A8    A(1,4,12)             118.302          calculate D2E/DX2 analytically  !
 ! A9    A(1,4,23)             117.4067         calculate D2E/DX2 analytically  !
 ! A10   A(9,4,12)              99.5422         calculate D2E/DX2 analytically  !
 ! A11   A(9,4,23)              95.8184         calculate D2E/DX2 analytically  !
 ! A12   A(12,4,23)            113.9157         calculate D2E/DX2 analytically  !
 ! A13   A(6,5,7)              108.7507         calculate D2E/DX2 analytically  !
 ! A14   A(6,5,8)              109.0311         calculate D2E/DX2 analytically  !
 ! A15   A(6,5,9)              112.1458         calculate D2E/DX2 analytically  !
 ! A16   A(7,5,8)              108.8032         calculate D2E/DX2 analytically  !
 ! A17   A(7,5,9)              109.2361         calculate D2E/DX2 analytically  !
 ! A18   A(8,5,9)              108.8183         calculate D2E/DX2 analytically  !
 ! A19   A(4,9,5)              125.4415         calculate D2E/DX2 analytically  !
 ! A20   A(4,9,10)             100.9722         calculate D2E/DX2 analytically  !
 ! A21   A(4,9,11)             102.1778         calculate D2E/DX2 analytically  !
 ! A22   A(5,9,10)             110.6251         calculate D2E/DX2 analytically  !
 ! A23   A(5,9,11)             110.3452         calculate D2E/DX2 analytically  !
 ! A24   A(10,9,11)            105.3205         calculate D2E/DX2 analytically  !
 ! A25   A(4,12,13)            122.0979         calculate D2E/DX2 analytically  !
 ! A26   A(4,12,17)            120.0923         calculate D2E/DX2 analytically  !
 ! A27   A(13,12,17)           117.7875         calculate D2E/DX2 analytically  !
 ! A28   A(12,13,14)           121.2944         calculate D2E/DX2 analytically  !
 ! A29   A(12,13,18)           120.3267         calculate D2E/DX2 analytically  !
 ! A30   A(14,13,18)           118.3563         calculate D2E/DX2 analytically  !
 ! A31   A(13,14,15)           120.2549         calculate D2E/DX2 analytically  !
 ! A32   A(13,14,19)           119.5695         calculate D2E/DX2 analytically  !
 ! A33   A(15,14,19)           120.1749         calculate D2E/DX2 analytically  !
 ! A34   A(14,15,16)           119.186          calculate D2E/DX2 analytically  !
 ! A35   A(14,15,20)           120.3907         calculate D2E/DX2 analytically  !
 ! A36   A(16,15,20)           120.423          calculate D2E/DX2 analytically  !
 ! A37   A(15,16,17)           120.3073         calculate D2E/DX2 analytically  !
 ! A38   A(15,16,21)           120.1658         calculate D2E/DX2 analytically  !
 ! A39   A(17,16,21)           119.5267         calculate D2E/DX2 analytically  !
 ! A40   A(12,17,16)           121.1659         calculate D2E/DX2 analytically  !
 ! A41   A(12,17,22)           120.0674         calculate D2E/DX2 analytically  !
 ! A42   A(16,17,22)           118.7613         calculate D2E/DX2 analytically  !
 ! A43   A(4,23,24)            110.3114         calculate D2E/DX2 analytically  !
 ! A44   A(4,23,25)            111.515          calculate D2E/DX2 analytically  !
 ! A45   A(4,23,26)            111.5229         calculate D2E/DX2 analytically  !
 ! A46   A(24,23,25)           108.1838         calculate D2E/DX2 analytically  !
 ! A47   A(24,23,26)           107.0888         calculate D2E/DX2 analytically  !
 ! A48   A(25,23,26)           108.0483         calculate D2E/DX2 analytically  !
 ! A49   A(1,27,28)            121.9264         calculate D2E/DX2 analytically  !
 ! A50   A(1,27,32)            121.1821         calculate D2E/DX2 analytically  !
 ! A51   A(28,27,32)           116.7858         calculate D2E/DX2 analytically  !
 ! A52   A(27,28,29)           121.6056         calculate D2E/DX2 analytically  !
 ! A53   A(27,28,33)           118.943          calculate D2E/DX2 analytically  !
 ! A54   A(29,28,33)           119.4489         calculate D2E/DX2 analytically  !
 ! A55   A(28,29,30)           120.5017         calculate D2E/DX2 analytically  !
 ! A56   A(28,29,34)           119.4884         calculate D2E/DX2 analytically  !
 ! A57   A(30,29,34)           120.0064         calculate D2E/DX2 analytically  !
 ! A58   A(29,30,31)           118.9097         calculate D2E/DX2 analytically  !
 ! A59   A(29,30,35)           120.569          calculate D2E/DX2 analytically  !
 ! A60   A(31,30,35)           120.5185         calculate D2E/DX2 analytically  !
 ! A61   A(30,31,32)           120.4634         calculate D2E/DX2 analytically  !
 ! A62   A(30,31,36)           120.0039         calculate D2E/DX2 analytically  !
 ! A63   A(32,31,36)           119.5229         calculate D2E/DX2 analytically  !
 ! A64   A(27,32,31)           121.6999         calculate D2E/DX2 analytically  !
 ! A65   A(27,32,37)           118.9217         calculate D2E/DX2 analytically  !
 ! A66   A(31,32,37)           119.3781         calculate D2E/DX2 analytically  !
 ! A67   A(2,38,39)            120.8886         calculate D2E/DX2 analytically  !
 ! A68   A(2,38,43)            119.8615         calculate D2E/DX2 analytically  !
 ! A69   A(39,38,43)           119.2476         calculate D2E/DX2 analytically  !
 ! A70   A(38,39,40)           120.4254         calculate D2E/DX2 analytically  !
 ! A71   A(38,39,44)           118.8179         calculate D2E/DX2 analytically  !
 ! A72   A(40,39,44)           120.7566         calculate D2E/DX2 analytically  !
 ! A73   A(39,40,41)           119.9249         calculate D2E/DX2 analytically  !
 ! A74   A(39,40,45)           119.9679         calculate D2E/DX2 analytically  !
 ! A75   A(41,40,45)           120.1071         calculate D2E/DX2 analytically  !
 ! A76   A(40,41,42)           120.0337         calculate D2E/DX2 analytically  !
 ! A77   A(40,41,46)           120.0148         calculate D2E/DX2 analytically  !
 ! A78   A(42,41,46)           119.9514         calculate D2E/DX2 analytically  !
 ! A79   A(41,42,43)           119.9527         calculate D2E/DX2 analytically  !
 ! A80   A(41,42,47)           120.0114         calculate D2E/DX2 analytically  !
 ! A81   A(43,42,47)           120.036          calculate D2E/DX2 analytically  !
 ! A82   A(38,43,42)           120.4132         calculate D2E/DX2 analytically  !
 ! A83   A(38,43,48)           118.9595         calculate D2E/DX2 analytically  !
 ! A84   A(42,43,48)           120.6266         calculate D2E/DX2 analytically  !
 ! D1    D(4,1,2,3)             92.4226         calculate D2E/DX2 analytically  !
 ! D2    D(4,1,2,38)           -89.1689         calculate D2E/DX2 analytically  !
 ! D3    D(27,1,2,3)           -77.0917         calculate D2E/DX2 analytically  !
 ! D4    D(27,1,2,38)          101.3168         calculate D2E/DX2 analytically  !
 ! D5    D(2,1,4,9)            -76.7147         calculate D2E/DX2 analytically  !
 ! D6    D(2,1,4,12)           172.226          calculate D2E/DX2 analytically  !
 ! D7    D(2,1,4,23)            29.3009         calculate D2E/DX2 analytically  !
 ! D8    D(27,1,4,9)            91.3847         calculate D2E/DX2 analytically  !
 ! D9    D(27,1,4,12)          -19.6746         calculate D2E/DX2 analytically  !
 ! D10   D(27,1,4,23)         -162.5997         calculate D2E/DX2 analytically  !
 ! D11   D(2,1,27,28)           43.8938         calculate D2E/DX2 analytically  !
 ! D12   D(2,1,27,32)         -132.2474         calculate D2E/DX2 analytically  !
 ! D13   D(4,1,27,28)         -124.5304         calculate D2E/DX2 analytically  !
 ! D14   D(4,1,27,32)           59.3285         calculate D2E/DX2 analytically  !
 ! D15   D(1,2,38,39)           -9.9749         calculate D2E/DX2 analytically  !
 ! D16   D(1,2,38,43)          170.5825         calculate D2E/DX2 analytically  !
 ! D17   D(3,2,38,39)          168.4947         calculate D2E/DX2 analytically  !
 ! D18   D(3,2,38,43)          -10.9479         calculate D2E/DX2 analytically  !
 ! D19   D(1,4,9,5)           -177.5042         calculate D2E/DX2 analytically  !
 ! D20   D(1,4,9,10)            57.1571         calculate D2E/DX2 analytically  !
 ! D21   D(1,4,9,11)           -51.335          calculate D2E/DX2 analytically  !
 ! D22   D(12,4,9,5)           -53.9313         calculate D2E/DX2 analytically  !
 ! D23   D(12,4,9,10)         -179.27           calculate D2E/DX2 analytically  !
 ! D24   D(12,4,9,11)           72.2379         calculate D2E/DX2 analytically  !
 ! D25   D(23,4,9,5)            61.5577         calculate D2E/DX2 analytically  !
 ! D26   D(23,4,9,10)          -63.781          calculate D2E/DX2 analytically  !
 ! D27   D(23,4,9,11)         -172.2731         calculate D2E/DX2 analytically  !
 ! D28   D(1,4,12,13)           64.7362         calculate D2E/DX2 analytically  !
 ! D29   D(1,4,12,17)         -113.5109         calculate D2E/DX2 analytically  !
 ! D30   D(9,4,12,13)          -50.3215         calculate D2E/DX2 analytically  !
 ! D31   D(9,4,12,17)          131.4313         calculate D2E/DX2 analytically  !
 ! D32   D(23,4,12,13)        -151.0993         calculate D2E/DX2 analytically  !
 ! D33   D(23,4,12,17)          30.6536         calculate D2E/DX2 analytically  !
 ! D34   D(1,4,23,24)           67.8456         calculate D2E/DX2 analytically  !
 ! D35   D(1,4,23,25)         -171.9165         calculate D2E/DX2 analytically  !
 ! D36   D(1,4,23,26)          -51.0224         calculate D2E/DX2 analytically  !
 ! D37   D(9,4,23,24)         -179.8068         calculate D2E/DX2 analytically  !
 ! D38   D(9,4,23,25)          -59.5689         calculate D2E/DX2 analytically  !
 ! D39   D(9,4,23,26)           61.3252         calculate D2E/DX2 analytically  !
 ! D40   D(12,4,23,24)         -76.6584         calculate D2E/DX2 analytically  !
 ! D41   D(12,4,23,25)          43.5795         calculate D2E/DX2 analytically  !
 ! D42   D(12,4,23,26)         164.4735         calculate D2E/DX2 analytically  !
 ! D43   D(6,5,9,4)            174.935          calculate D2E/DX2 analytically  !
 ! D44   D(6,5,9,10)           -63.8999         calculate D2E/DX2 analytically  !
 ! D45   D(6,5,9,11)            52.2462         calculate D2E/DX2 analytically  !
 ! D46   D(7,5,9,4)            -64.4283         calculate D2E/DX2 analytically  !
 ! D47   D(7,5,9,10)            56.7369         calculate D2E/DX2 analytically  !
 ! D48   D(7,5,9,11)           172.8829         calculate D2E/DX2 analytically  !
 ! D49   D(8,5,9,4)             54.2291         calculate D2E/DX2 analytically  !
 ! D50   D(8,5,9,10)           175.3943         calculate D2E/DX2 analytically  !
 ! D51   D(8,5,9,11)           -68.4596         calculate D2E/DX2 analytically  !
 ! D52   D(4,12,13,14)        -177.9754         calculate D2E/DX2 analytically  !
 ! D53   D(4,12,13,18)           0.2635         calculate D2E/DX2 analytically  !
 ! D54   D(17,12,13,14)          0.3103         calculate D2E/DX2 analytically  !
 ! D55   D(17,12,13,18)        178.5493         calculate D2E/DX2 analytically  !
 ! D56   D(4,12,17,16)         177.6036         calculate D2E/DX2 analytically  !
 ! D57   D(4,12,17,22)          -1.5398         calculate D2E/DX2 analytically  !
 ! D58   D(13,12,17,16)         -0.718          calculate D2E/DX2 analytically  !
 ! D59   D(13,12,17,22)       -179.8614         calculate D2E/DX2 analytically  !
 ! D60   D(12,13,14,15)          0.195          calculate D2E/DX2 analytically  !
 ! D61   D(12,13,14,19)        179.8712         calculate D2E/DX2 analytically  !
 ! D62   D(18,13,14,15)       -178.0777         calculate D2E/DX2 analytically  !
 ! D63   D(18,13,14,19)          1.5986         calculate D2E/DX2 analytically  !
 ! D64   D(13,14,15,16)         -0.3018         calculate D2E/DX2 analytically  !
 ! D65   D(13,14,15,20)        179.8696         calculate D2E/DX2 analytically  !
 ! D66   D(19,14,15,16)       -179.9761         calculate D2E/DX2 analytically  !
 ! D67   D(19,14,15,20)          0.1954         calculate D2E/DX2 analytically  !
 ! D68   D(14,15,16,17)         -0.1015         calculate D2E/DX2 analytically  !
 ! D69   D(14,15,16,21)       -179.9483         calculate D2E/DX2 analytically  !
 ! D70   D(20,15,16,17)        179.727          calculate D2E/DX2 analytically  !
 ! D71   D(20,15,16,21)         -0.1198         calculate D2E/DX2 analytically  !
 ! D72   D(15,16,17,12)          0.6246         calculate D2E/DX2 analytically  !
 ! D73   D(15,16,17,22)        179.779          calculate D2E/DX2 analytically  !
 ! D74   D(21,16,17,12)       -179.5276         calculate D2E/DX2 analytically  !
 ! D75   D(21,16,17,22)         -0.3733         calculate D2E/DX2 analytically  !
 ! D76   D(1,27,28,29)        -177.4221         calculate D2E/DX2 analytically  !
 ! D77   D(1,27,28,33)           3.1539         calculate D2E/DX2 analytically  !
 ! D78   D(32,27,28,29)         -1.1201         calculate D2E/DX2 analytically  !
 ! D79   D(32,27,28,33)        179.4559         calculate D2E/DX2 analytically  !
 ! D80   D(1,27,32,31)         178.4567         calculate D2E/DX2 analytically  !
 ! D81   D(1,27,32,37)          -1.3186         calculate D2E/DX2 analytically  !
 ! D82   D(28,27,32,31)          2.1252         calculate D2E/DX2 analytically  !
 ! D83   D(28,27,32,37)       -177.6501         calculate D2E/DX2 analytically  !
 ! D84   D(27,28,29,30)         -0.4306         calculate D2E/DX2 analytically  !
 ! D85   D(27,28,29,34)       -179.7458         calculate D2E/DX2 analytically  !
 ! D86   D(33,28,29,30)        178.9905         calculate D2E/DX2 analytically  !
 ! D87   D(33,28,29,34)         -0.3247         calculate D2E/DX2 analytically  !
 ! D88   D(28,29,30,31)          1.0291         calculate D2E/DX2 analytically  !
 ! D89   D(28,29,30,35)       -179.5709         calculate D2E/DX2 analytically  !
 ! D90   D(34,29,30,31)       -179.6592         calculate D2E/DX2 analytically  !
 ! D91   D(34,29,30,35)         -0.2592         calculate D2E/DX2 analytically  !
 ! D92   D(29,30,31,32)         -0.0389         calculate D2E/DX2 analytically  !
 ! D93   D(29,30,31,36)        178.8159         calculate D2E/DX2 analytically  !
 ! D94   D(35,30,31,32)       -179.4392         calculate D2E/DX2 analytically  !
 ! D95   D(35,30,31,36)         -0.5844         calculate D2E/DX2 analytically  !
 ! D96   D(30,31,32,27)         -1.5889         calculate D2E/DX2 analytically  !
 ! D97   D(30,31,32,37)        178.1854         calculate D2E/DX2 analytically  !
 ! D98   D(36,31,32,27)        179.5508         calculate D2E/DX2 analytically  !
 ! D99   D(36,31,32,37)         -0.6749         calculate D2E/DX2 analytically  !
 ! D100  D(2,38,39,40)        -179.26           calculate D2E/DX2 analytically  !
 ! D101  D(2,38,39,44)           0.7725         calculate D2E/DX2 analytically  !
 ! D102  D(43,38,39,40)          0.186          calculate D2E/DX2 analytically  !
 ! D103  D(43,38,39,44)       -179.7815         calculate D2E/DX2 analytically  !
 ! D104  D(2,38,43,42)         179.7277         calculate D2E/DX2 analytically  !
 ! D105  D(2,38,43,48)          -0.5858         calculate D2E/DX2 analytically  !
 ! D106  D(39,38,43,42)          0.276          calculate D2E/DX2 analytically  !
 ! D107  D(39,38,43,48)        179.9625         calculate D2E/DX2 analytically  !
 ! D108  D(38,39,40,41)         -0.4588         calculate D2E/DX2 analytically  !
 ! D109  D(38,39,40,45)        179.6779         calculate D2E/DX2 analytically  !
 ! D110  D(44,39,40,41)        179.508          calculate D2E/DX2 analytically  !
 ! D111  D(44,39,40,45)         -0.3553         calculate D2E/DX2 analytically  !
 ! D112  D(39,40,41,42)          0.2711         calculate D2E/DX2 analytically  !
 ! D113  D(39,40,41,46)       -179.6675         calculate D2E/DX2 analytically  !
 ! D114  D(45,40,41,42)       -179.8658         calculate D2E/DX2 analytically  !
 ! D115  D(45,40,41,46)          0.1956         calculate D2E/DX2 analytically  !
 ! D116  D(40,41,42,43)          0.1882         calculate D2E/DX2 analytically  !
 ! D117  D(40,41,42,47)       -179.7811         calculate D2E/DX2 analytically  !
 ! D118  D(46,41,42,43)       -179.8731         calculate D2E/DX2 analytically  !
 ! D119  D(46,41,42,47)          0.1576         calculate D2E/DX2 analytically  !
 ! D120  D(41,42,43,38)         -0.463          calculate D2E/DX2 analytically  !
 ! D121  D(41,42,43,48)        179.8558         calculate D2E/DX2 analytically  !
 ! D122  D(47,42,43,38)        179.5063         calculate D2E/DX2 analytically  !
 ! D123  D(47,42,43,48)         -0.175          calculate D2E/DX2 analytically  !
 --------------------------------------------------------------------------------
 Trust Radius=1.00D-01 FncErr=1.00D-07 GrdErr=1.00D-06 EigMax=2.50D+02 EigMin=1.00D-04
 Number of steps in this run=    100 maximum allowed number of steps=    288.
 Search for a saddle point of order  1.
 GradGradGradGradGradGradGradGradGradGradGradGradGradGradGradGradGradGrad

                          Input orientation:                          
 ---------------------------------------------------------------------
 Center     Atomic      Atomic             Coordinates (Angstroms)
 Number     Number       Type             X           Y           Z
 ---------------------------------------------------------------------
      1          6           0        0.238570    0.157440   -0.470360
      2          6           0        1.628580    0.124550   -1.015760
      3          8           0        1.879900    0.334890   -2.193230
      4          6           0       -0.469690   -1.039800   -0.426690
      5          6           0       -1.873110   -2.533790   -2.585680
      6          1           0       -2.152810   -2.481880   -3.639530
      7          1           0       -1.322980   -3.456940   -2.414860
      8          1           0       -2.777230   -2.546420   -1.978470
      9          7           0       -1.044110   -1.394240   -2.176630
     10          1           0       -0.158990   -1.399600   -2.673120
     11          1           0       -1.490990   -0.522640   -2.435540
     12          6           0       -1.801110   -1.057640    0.281970
     13          6           0       -2.892860   -0.320840   -0.174170
     14          6           0       -4.095380   -0.316810    0.512500
     15          6           0       -4.235300   -1.050850    1.681600
     16          6           0       -3.160230   -1.790840    2.147720
     17          6           0       -1.960090   -1.797770    1.450900
     18          1           0       -2.807730    0.287380   -1.065110
     19          1           0       -4.924850    0.267330    0.134050
     20          1           0       -5.173740   -1.047600    2.221310
     21          1           0       -3.252180   -2.370150    3.057970
     22          1           0       -1.136140   -2.381190    1.839230
     23          6           0        0.333130   -2.323670   -0.264710
     24          1           0        0.789500   -2.362250    0.724210
     25          1           0       -0.295160   -3.205370   -0.383740
     26          1           0        1.142020   -2.384340   -0.993500
     27          6           0       -0.309470    1.515290   -0.262520
     28          6           0       -0.153490    2.531080   -1.214920
     29          6           0       -0.624620    3.817450   -0.990400
     30          6           0       -1.277060    4.131660    0.192240
     31          6           0       -1.432050    3.143510    1.157050
     32          6           0       -0.943220    1.866890    0.938980
     33          1           0        0.338910    2.300390   -2.151150
     34          1           0       -0.489040    4.575810   -1.752570
     35          1           0       -1.651080    5.132900    0.365600
     36          1           0       -1.922060    3.374610    2.095590
     37          1           0       -1.047460    1.118580    1.714460
     38          6           0        2.762590   -0.143700   -0.069080
     39          6           0        2.557230   -0.152830    1.307680
     40          6           0        3.614600   -0.386560    2.173890
     41          6           0        4.884610   -0.622530    1.667890
     42          6           0        5.098020   -0.619070    0.294110
     43          6           0        4.043420   -0.376200   -0.568310
     44          1           0        1.559100    0.024990    1.687660
     45          1           0        3.447510   -0.386830    3.243470
     46          1           0        5.710290   -0.810550    2.342810
     47          1           0        6.088560   -0.806770   -0.100490
     48          1           0        4.197680   -0.368650   -1.639490
 ---------------------------------------------------------------------
                    Distance matrix (angstroms):
                    1          2          3          4          5
     1  C    0.000000
     2  C    1.493543   0.000000
     3  O    2.386155   1.222228   0.000000
     4  C    1.391734   2.470921   3.245152   0.000000
     5  C    4.022001   4.668324   4.740087   2.977051   0.000000
     6  H    4.767426   5.289287   5.127253   3.903182   1.091571
     7  H    4.391271   4.847294   4.968454   3.243993   1.088131
     8  H    4.322072   5.241379   5.480596   3.162699   1.089172
     9  N    2.639003   3.285972   3.397058   1.875600   1.467357
    10  H    2.726642   2.874940   2.719526   2.296179   2.057241
    11  H    2.704777   3.488029   3.486685   2.312139   2.052628
    12  C    2.490525   3.852850   4.649257   1.508375   3.226084
    13  C    3.181562   4.620613   5.223583   2.540162   3.428180
    14  C    4.469234   5.940883   6.591636   3.814501   4.410465
    15  C    5.109443   6.560671   7.370906   4.315649   5.097914
    16  C    4.711898   6.050539   6.983229   3.798770   4.961222
    17  C    3.513999   4.760071   5.707315   2.514191   4.104055
    18  H    3.106534   4.439572   4.821700   2.763226   3.338360
    19  H    5.199836   6.655065   7.192039   4.676694   4.955434
    20  H    6.163628   7.623917   8.435240   5.398153   6.017481
    21  H    5.569844   6.829394   7.824998   4.653487   5.812005
    22  H    3.697117   4.698231   5.721392   2.716225   4.488456
    23  C    2.491413   2.869852   3.630376   1.522852   3.209135
    24  H    2.842421   3.148924   4.120072   2.158473   4.251387
    25  H    3.406004   3.897254   4.531951   2.173016   2.790965
    26  H    2.747825   2.555732   3.062357   2.174091   3.412973
    27  C    1.478953   2.501513   3.148702   2.565367   4.923118
    28  C    2.518382   3.001137   3.148812   3.670487   5.521683
    29  C    3.796210   4.326091   4.455070   4.892305   6.666475
    30  C    4.304718   5.094991   5.483824   5.270571   7.245712
    31  C    3.788938   4.816916   5.484682   4.575418   6.814272
    32  C    2.510993   3.670274   4.486398   3.246249   5.714360
    33  H    2.725318   2.772479   2.497921   3.845057   5.333961
    34  H    4.657840   4.984067   4.877649   5.770044   7.290825
    35  H    5.387468   6.143932   6.483543   6.334480   8.218119
    36  H    4.647860   5.731530   6.487586   5.287560   7.538294
    37  H    2.711292   3.950112   4.945063   3.094664   5.701992
    38  C    2.573400   1.501379   2.349511   3.373205   5.790986
    39  C    2.938346   2.517480   3.599030   3.599583   6.360435
    40  C    4.322681   3.792015   4.754094   4.885812   7.574897
    41  C    5.173602   4.285071   4.985297   5.764539   8.210515
    42  C    4.980124   3.782293   4.177702   5.629917   7.781773
    43  C    3.843338   2.506474   2.797648   4.563834   6.612889
    44  H    2.533455   2.706145   3.906438   3.117730   6.048872
    45  H    4.938224   4.659512   5.704033   5.407486   8.179085
    46  H    6.228214   5.367938   6.046452   6.776049   9.206928
    47  H    5.940445   4.647203   4.836917   6.570491   8.517450
    48  H    4.161513   2.689342   2.484693   4.868847   6.514415
                    6          7          8          9         10
     6  H    0.000000
     7  H    1.771772   0.000000
     8  H    1.775721   1.770403   0.000000
     9  N    2.133601   2.095054   2.090572   0.000000
    10  H    2.465887   2.377860   2.941584   1.014874   0.000000
    11  H    2.392952   2.939179   2.441109   1.013125   1.612367
    12  C    4.186922   3.641173   2.877302   2.594429   3.397948
    13  C    4.150480   4.161771   2.867416   2.929148   3.857787
    14  C    5.069562   5.110387   3.593551   4.207437   5.178395
    15  C    5.890589   5.572420   4.214120   5.018720   5.975075
    16  C    5.914786   5.193122   4.212248   4.830658   5.692188
    17  C    5.139808   4.254745   3.603994   3.763088   4.517747
    18  H    3.837364   4.248087   2.977512   2.678372   3.528090
    19  H    5.429758   5.774132   4.122160   4.812505   5.776875
    20  H    6.747787   6.490558   5.062398   6.042837   7.016200
    21  H    6.788049   5.903795   5.061855   5.764461   6.584465
    22  H    5.573201   4.391973   4.158763   4.136384   4.720132
    23  C    4.194561   2.941113   3.558220   2.532996   2.626124
    24  H    5.264383   3.938868   4.478835   3.565675   3.656252
    25  H    3.817652   2.290229   3.022921   2.656233   2.919008
    26  H    4.226925   3.040881   4.044373   2.675679   2.341680
    27  C    5.547925   5.512063   5.052901   3.559337   3.785528
    28  C    5.916568   6.218034   5.766110   4.138385   4.192448
    29  C    7.002486   7.445371   6.790350   5.361420   5.501451
    30  C    7.693394   8.024084   7.180477   6.016758   6.328918
    31  C    7.427765   7.505756   6.634478   5.644032   6.077066
    32  C    6.429437   6.303620   5.599322   4.511338   4.932772
    33  H    5.594109   5.998189   5.764695   3.945084   3.769653
    34  H    7.492646   8.103034   7.484184   6.010776   6.054905
    35  H    8.618450   9.034598   8.107702   7.030996   7.357561
    36  H    8.200203   8.208114   7.237947   6.462553   6.974388
    37  H    6.546016   6.169488   5.482888   4.631939   5.136289
    38  C    6.509712   5.759525   6.333122   4.527315   4.110224
    39  C    7.216913   6.311139   6.707050   5.162477   4.977856
    40  C    8.452765   7.406994   7.922284   6.453373   6.225732
    41  C    9.008394   7.952163   8.700637   7.108136   6.699709
    42  C    8.456839   7.524710   8.420146   6.665674   6.086858
    43  C    7.229076   6.457473   7.295181   5.431948   4.810179
    44  H    6.960002   6.104170   6.233492   4.870693   4.898744
    45  H    9.117484   8.012481   8.407132   7.111048   7.002755
    46  H   10.020483   8.894138   9.681152   8.147880   7.743060
    47  H    9.124197   8.204306   9.227970   7.451876   6.782459
    48  H    6.985315   6.373101   7.314845   5.368120   4.594760
                   11         12         13         14         15
    11  H    0.000000
    12  C    2.786980   0.000000
    13  C    2.668287   1.393864   0.000000
    14  C    3.939055   2.421910   1.384769   0.000000
    15  C    4.976051   2.807898   2.403943   1.387511   0.000000
    16  C    5.039937   2.421944   2.761079   2.391906   1.385867
    17  C    4.117090   1.392647   2.385840   2.762843   2.405762
    18  H    2.065917   2.153366   1.082106   2.124133   3.372422
    19  H    4.360991   3.396348   2.137739   1.082804   2.146623
    20  H    5.960242   3.890472   3.386579   2.148708   1.082574
    21  H    6.057535   3.396242   3.843893   3.377367   2.145104
    22  H    4.674803   2.149193   3.374150   3.844344   3.376306
    23  C    3.359111   2.540998   3.798228   4.923743   5.126280
    24  H    4.309155   2.934083   4.305138   5.300066   5.280623
    25  H    3.582867   2.706252   3.887477   4.856820   4.942903
    26  H    3.532442   3.471163   4.605387   5.828643   6.152229
    27  C    3.204866   3.023479   3.170660   4.276723   5.077088
    28  C    3.550215   4.223061   4.089102   5.160713   6.154772
    29  C    4.655686   5.173930   4.789216   5.603302   6.623967
    30  C    5.349159   5.216466   4.750771   5.275830   6.150430
    31  C    5.133306   4.307161   3.988463   4.413908   5.072082
    32  C    4.171006   3.117774   3.134703   3.858308   4.461220
    33  H    3.376227   4.666489   4.606912   5.797214   6.844281
    34  H    5.240663   6.131610   5.678633   6.486444   7.582037
    35  H    6.313252   6.192922   5.619310   5.974573   6.829994
    36  H    5.992121   4.790479   4.444166   4.566845   5.010705
    37  H    4.484732   2.712185   3.007383   3.576992   3.856142
    38  C    4.882281   4.667535   5.659199   6.884763   7.270369
    39  C    5.525988   4.567920   5.650450   6.701971   6.861831
    40  C    6.879856   5.775779   6.918435   7.887260   7.893324
    41  C    7.582637   6.841706   7.998327   9.059173   9.129973
    42  C    7.132695   6.913066   8.010143   9.200960   9.445762
    43  C    5.842746   5.945239   6.947690   8.210465   8.605490
    44  H    5.157880   3.799877   4.837970   5.785410   5.893432
    45  H    7.527176   6.063702   7.203118   8.022362   7.868032
    46  H    8.647193   7.792897   8.977148   9.987241   9.970441
    47  H    7.936168   7.902917   8.994858  10.214130  10.479385
    48  H    5.746162   6.336576   7.240525   8.567881   9.089015
                   16         17         18         19         20
    16  C    0.000000
    17  C    1.387783   0.000000
    18  H    3.842594   3.375893   0.000000
    19  H    3.377101   3.845586   2.433225   0.000000
    20  H    2.147567   3.388780   4.263887   2.479444   0.000000
    21  H    1.082871   2.140044   4.925423   4.278251   2.478211
    22  H    2.130873   1.081699   4.283768   4.927131   4.269269
    23  C    4.278702   2.911829   4.162118   5.875257   6.175295
    24  H    4.237128   2.899476   4.812719   6.317972   6.287276
    25  H    4.076495   2.849427   4.356211   5.810489   5.936565
    26  H    5.359931   3.992774   4.769040   6.716371   7.211845
    27  C    4.986641   4.078814   2.897105   4.797542   6.033153
    28  C    6.247145   5.395307   3.478739   5.450703   7.058154
    29  C    6.908692   6.266907   4.151258   5.688560   7.394477
    30  C    6.515078   6.099909   4.324623   5.314396   6.791611
    31  C    5.321263   4.978094   3.871430   4.638814   5.718242
    32  C    4.444679   3.837424   3.160321   4.365762   5.294896
    33  H    6.889298   5.920733   3.890120   6.087909   7.792096
    34  H    7.929801   7.283456   4.923368   6.465195   8.328318
    35  H    7.306960   7.021933   5.183033   5.868983   7.351964
    36  H    5.312029   5.212541   4.506154   4.745480   5.490462
    37  H    3.621634   3.067157   3.393443   4.272760   4.687795
    38  C    6.535065   5.229722   5.675066   7.701100   8.309528
    39  C    6.006504   4.809628   5.882747   7.585213   7.836021
    40  C    6.918888   5.795809   7.224378   8.804018   8.813294
    41  C    8.143380   6.948251   8.213971   9.968451  10.082528
    42  C    8.544449   7.248753   8.072795  10.063262  10.459770
    43  C    7.827554   6.491549   6.901116   9.018720   9.653434
    44  H    5.077496   3.970291   5.168732   6.671884   6.838594
    45  H    6.843547   5.869088   7.625382   8.955045   8.706743
    46  H    8.926654   7.784911   9.239915  10.915432  10.887289
    47  H    9.568854   8.256492   9.015078  11.068148  11.501659
    48  H    8.396691   7.036407   7.059466   9.315067  10.158261
                   21         22         23         24         25
    21  H    0.000000
    22  H    2.441941   0.000000
    23  C    4.888436   2.566832   0.000000
    24  H    4.667084   2.225246   1.089828   0.000000
    25  H    4.613776   2.515575   1.089179   1.764906   0.000000
    26  H    5.976923   3.635159   1.090467   1.753649   1.763912
    27  C    5.897613   4.503698   3.892371   4.149300   4.722238
    28  C    7.202883   5.867182   4.970744   5.347348   5.798085
    29  C    7.847278   6.833125   6.257577   6.567215   7.056669
    30  C    7.374757   6.719349   6.668793   6.835534   7.424816
    31  C    6.109568   5.574517   5.918388   5.952817   6.631352
    32  C    5.270097   4.346706   4.542987   4.575376   5.281798
    33  H    7.864147   6.325828   4.994058   5.496448   5.817145
    34  H    8.889466   7.856183   7.105809   7.477017   7.903040
    35  H    8.130691   7.674523   7.741758   7.890647   8.480966
    36  H    5.974752   5.814862   6.567137   6.491903   7.217341
    37  H    4.340167   3.503116   4.203835   4.058472   4.864663
    38  C    7.135333   4.883452   3.269987   3.073167   4.338510
    39  C    6.459819   4.346161   3.483041   2.889090   4.507220
    40  C    7.202006   5.163340   4.524070   3.739801   5.456499
    41  C    8.437645   6.274685   5.229225   4.548306   6.140868
    42  C    8.968336   6.660121   5.091377   4.667655   6.019536
    43  C    8.387581   6.053435   4.201317   4.025295   5.182812
    44  H    5.546428   3.616213   3.291042   2.686901   4.261948
    45  H    6.989550   5.192226   5.075238   4.161006   5.925234
    46  H    9.125222   7.042308   6.164620   5.407570   7.016742
    47  H    9.983459   7.644449   5.954236   5.583877   6.825349
    48  H    9.031752   6.678431   4.543883   4.601870   5.459808
                   26         27         28         29         30
    26  H    0.000000
    27  C    4.224721   0.000000
    28  C    5.088097   1.401151   0.000000
    29  C    6.448506   2.434968   1.388208   0.000000
    30  C    7.050970   2.826381   2.409225   1.386738   0.000000
    31  C    6.465897   2.434433   2.763336   2.391167   1.389720
    32  C    5.114261   1.403162   2.388327   2.762010   2.407956
    33  H    4.892017   2.145624   1.082683   2.139440   3.384728
    34  H    7.188896   3.408706   2.140697   1.083695   2.144885
    35  H    8.133723   3.909163   3.392681   2.150062   1.082786
    36  H    7.217795   3.408548   3.846929   3.376802   2.147531
    37  H    4.939364   2.147198   3.372774   3.844341   3.383566
    38  C    2.915693   3.496744   4.119578   5.292705   5.887764
    39  C    3.503981   3.669621   4.573280   5.582872   5.856863
    40  C    4.487442   4.995143   5.847663   6.757027   6.947632
    41  C    4.918735   5.939295   6.605929   7.558541   7.921240
    42  C    4.519298   5.840058   6.307057   7.353998   7.951192
    43  C    3.554087   4.755932   5.146303   6.289313   7.014752
    44  H    3.628698   3.084761   4.199812   5.130633   5.210069
    45  H    5.220847   5.479500   6.431068   7.223840   7.214452
    46  H    5.871701   6.959511   7.629407   8.524069   8.824594
    47  H    5.268249   6.808304   7.165639   8.200130   8.872775
    48  H    3.717172   5.075399   5.246082   6.418670   7.319891
                   31         32         33         34         35
    31  C    0.000000
    32  C    1.384293   0.000000
    33  H    3.845951   3.373527   0.000000
    34  H    3.377372   3.845643   2.453957   0.000000
    35  H    2.152217   3.390671   4.279860   2.479381   0.000000
    36  H    1.083686   2.137544   4.929578   4.278407   2.481507
    37  H    2.135171   1.082683   4.273364   4.927938   4.277680
    38  C    5.468469   4.334938   4.022787   5.973358   6.892890
    39  C    5.177152   4.058123   4.785680   6.403509   6.821754
    40  C    6.242118   5.232281   6.054405   7.542020   7.839754
    41  C    7.371852   6.379038   6.617546   8.221825   8.805463
    42  C    7.585742   6.564483   6.095217   7.898792   8.867955
    43  C    6.733944   5.671856   4.836622   6.816749   7.978076
    44  H    4.353584   3.196048   4.626313   6.061355   6.176070
    45  H    6.373896   5.446874   6.781332   8.067505   8.046439
    46  H    8.249463   7.308120   7.663247   9.176966   9.665595
    47  H    8.587531   7.594398   6.849681   8.658311   9.767238
    48  H    7.200678   6.170494   4.719711   6.813649   8.276197
                   36         37         38         39         40
    36  H    0.000000
    37  H    2.449460   0.000000
    38  C    6.245818   4.392135   0.000000
    39  C    5.755665   3.843923   1.392022   0.000000
    40  C    6.693813   4.920501   2.411600   1.386716   0.000000
    41  C    7.905113   6.182482   2.783759   2.401472   1.387315
    42  C    8.275043   6.542457   2.410833   2.774945   2.405861
    43  C    7.533385   5.776025   1.394207   2.403746   2.775546
    44  H    4.848179   2.826802   2.136113   1.082713   2.151946
    45  H    6.655700   4.980852   3.391344   2.143511   1.082553
    46  H    8.708011   7.055746   3.866631   3.383176   2.144812
    47  H    9.299287   7.610769   3.391567   3.857573   3.386718
    48  H    8.087894   6.400963   2.139223   3.379862   3.857742
                   41         42         43         44         45
    41  C    0.000000
    42  C    1.390262   0.000000
    43  C    2.401847   1.383812   0.000000
    44  H    3.388022   3.857557   3.379675   0.000000
    45  H    2.145522   3.387749   3.858094   2.481176   0.000000
    46  H    1.082874   2.146791   3.382563   4.284825   2.472024
    47  H    2.147233   1.082640   2.141692   4.940173   4.281771
    48  H    3.387490   2.147587   1.082257   4.264620   4.940282
                   46         47         48
    46  H    0.000000
    47  H    2.472411   0.000000
    48  H    4.282754   2.477074   0.000000
 Stoichiometry    C23H23NO
 Framework group  C1[X(C23H23NO)]
 Deg. of freedom   138
 Full point group                 C1      NOp   1
 Largest Abelian subgroup         C1      NOp   1
 Largest concise Abelian subgroup C1      NOp   1
                         Standard orientation:                         
 ---------------------------------------------------------------------
 Center     Atomic      Atomic             Coordinates (Angstroms)
 Number     Number       Type             X           Y           Z
 ---------------------------------------------------------------------
      1          6           0       -0.238570    0.157440    0.470361
      2          6           0       -1.628580    0.124550    1.015761
      3          8           0       -1.879900    0.334890    2.193231
      4          6           0        0.469689   -1.039801    0.426691
      5          6           0        1.873109   -2.533791    2.585681
      6          1           0        2.152809   -2.481881    3.639531
      7          1           0        1.322979   -3.456941    2.414861
      8          1           0        2.777229   -2.546421    1.978471
      9          7           0        1.044109   -1.394241    2.176631
     10          1           0        0.158989   -1.399600    2.673121
     11          1           0        1.490990   -0.522641    2.435541
     12          6           0        1.801109   -1.057641   -0.281969
     13          6           0        2.892860   -0.320842    0.174171
     14          6           0        4.095380   -0.316812   -0.512499
     15          6           0        4.235299   -1.050852   -1.681599
     16          6           0        3.160229   -1.790842   -2.147719
     17          6           0        1.960089   -1.797771   -1.450899
     18          1           0        2.807730    0.287379    1.065111
     19          1           0        4.924850    0.267328   -0.134049
     20          1           0        5.173739   -1.047602   -2.221309
     21          1           0        3.252179   -2.370152   -3.057969
     22          1           0        1.136139   -2.381191   -1.839229
     23          6           0       -0.333131   -2.323670    0.264711
     24          1           0       -0.789501   -2.362250   -0.724209
     25          1           0        0.295159   -3.205371    0.383741
     26          1           0       -1.142021   -2.384340    0.993501
     27          6           0        0.309470    1.515289    0.262521
     28          6           0        0.153491    2.531080    1.214921
     29          6           0        0.624621    3.817449    0.990401
     30          6           0        1.277061    4.131659   -0.192239
     31          6           0        1.432051    3.143509   -1.157049
     32          6           0        0.943221    1.866889   -0.938979
     33          1           0       -0.338909    2.300390    2.151151
     34          1           0        0.489042    4.575809    1.752571
     35          1           0        1.651082    5.132899   -0.365599
     36          1           0        1.922061    3.374609   -2.095589
     37          1           0        1.047460    1.118579   -1.714459
     38          6           0       -2.762590   -0.143699    0.069081
     39          6           0       -2.557230   -0.152829   -1.307679
     40          6           0       -3.614600   -0.386559   -2.173889
     41          6           0       -4.884610   -0.622529   -1.667889
     42          6           0       -5.098020   -0.619068   -0.294109
     43          6           0       -4.043420   -0.376199    0.568311
     44          1           0       -1.559100    0.024990   -1.687659
     45          1           0       -3.447510   -0.386829   -3.243469
     46          1           0       -5.710290   -0.810548   -2.342809
     47          1           0       -6.088560   -0.806768    0.100491
     48          1           0       -4.197680   -0.368649    1.639491
 ---------------------------------------------------------------------
 Rotational constants (GHZ):           0.2965096           0.1753739           0.1516877
 Standard basis: def2TZVP (5D, 7F)
 There are  1038 symmetry adapted cartesian basis functions of A   symmetry.
 There are   913 symmetry adapted basis functions of A   symmetry.
   913 basis functions,  1459 primitive gaussians,  1038 cartesian basis functions
    88 alpha electrons       88 beta electrons
       nuclear repulsion energy      2146.7945107842 Hartrees.
 NAtoms=   48 NActive=   48 NUniq=   48 SFac= 1.00D+00 NAtFMM=   60 NAOKFM=F Big=F
 Integral buffers will be    131072 words long.
 Raffenetti 2 integral format.
 Two-electron integral symmetry is turned on.
 Nuclear repulsion after empirical dispersion term =     2146.7498738265 Hartrees.
 Force inversion solution in PCM.
 ------------------------------------------------------------------------------
 Polarizable Continuum Model (PCM)
 =================================
 Model                : PCM.
 Atomic radii         : UFF (Universal Force Field).
 Polarization charges : Total charges.
 Charge compensation  : None.
 Solution method      : Matrix inversion.
 Cavity type          : Scaled VdW (van der Waals Surface) (Alpha=1.100).
 Cavity algorithm     : GePol (No added spheres)
                        Default sphere list used, NSphG=   48.
                        Lebedev-Laikov grids with approx.  5.0 points / Ang**2.
                        Smoothing algorithm: York/Karplus (Gamma=1.0000).
                        Polarization charges: spherical gaussians, with
                                              point-specific exponents (IZeta= 3).
                        Self-potential: point-specific (ISelfS= 7).
                        Self-field    : sphere-specific E.n sum rule (ISelfD= 2).
 1st derivatives      : Analytical E(r).r(x)/FMM algorithm (CHGder, D1EAlg=3).
                        Cavity 1st derivative terms included.
 2nd derivatives      : Analytical E(r).r(xy)/FMM algorithm (CHGder, D2EAlg=3).
                        Cavity 2nd derivative terms included.
 Solvent              : Water, Eps=  78.355300 Eps(inf)=   1.777849
 ------------------------------------------------------------------------------
 One-electron integrals computed using PRISM.
   1 Symmetry operations used in ECPInt.
 ECPInt:  NShTT=   67528 NPrTT=  204460 LenC2=   59409 LenP2D=  126629.
 LDataN:  DoStor=T MaxTD1= 6 Len=  172
 NBasis=   913 RedAO= T EigKep=  5.87D-06  NBF=   913
 NBsUse=   913 1.00D-06 EigRej= -1.00D+00 NBFU=   913
 ExpMin= 9.52D-02 ExpMax= 2.70D+04 ExpMxC= 9.22D+02 IAcc=3 IRadAn=         5 AccDes= 0.00D+00
 Harris functional with IExCor= 4639 and IRadAn=       5 diagonalized for initial guess.
 HarFok:  IExCor= 4639 AccDes= 0.00D+00 IRadAn=         5 IDoV= 1 UseB2=F ITyADJ=14
 ICtDFT=  3500011 ScaDFX=  1.000000  1.000000  1.000000  1.000000
 FoFCou: FMM=F IPFlag=           0 FMFlag=      100000 FMFlg1=           0
         NFxFlg=           0 DoJE=T BraDBF=F KetDBF=T FulRan=T
         wScrn=  0.000000 ICntrl=       500 IOpCl=  0 I1Cent=   200000004 NGrid=           0
         NMat0=    1 NMatS0=      1 NMatT0=    0 NMatD0=    1 NMtDS0=    0 NMtDT0=    0
 Petite list used in FoFCou.
 Requested convergence on RMS density matrix=1.00D-08 within 128 cycles.
 Requested convergence on MAX density matrix=1.00D-06.
 Requested convergence on             energy=1.00D-06.
 No special actions if energy rises.
 Inv3:  Mode=1 IEnd=    32571075.
 Iteration    1 A*A^-1 deviation from unit magnitude is 3.66D-15 for    214.
 Iteration    1 A*A^-1 deviation from orthogonality  is 2.44D-15 for   1751   1301.
 Iteration    1 A^-1*A deviation from unit magnitude is 3.66D-15 for    214.
 Iteration    1 A^-1*A deviation from orthogonality  is 5.22D-15 for   2566   2522.
 Error on total polarization charges =  0.01858
 SCF Done:  E(RwB97XD) =  -1020.24149894     A.U. after   16 cycles
            NFock= 16  Conv=0.52D-08     -V/T= 2.0048
 DoSCS=F DFT=T ScalE2(SS,OS)=  1.000000  1.000000
 Range of M.O.s used for correlation:     1   913
 NBasis=   913 NAE=    88 NBE=    88 NFC=     0 NFV=     0
 NROrb=    913 NOA=    88 NOB=    88 NVA=   825 NVB=   825

 **** Warning!!: The largest alpha MO coefficient is  0.50423371D+02

   1 Symmetry operations used in ECPInt.
 ECPInt:  NShTT=   67528 NPrTT=  204460 LenC2=   59409 LenP2D=  126629.
 LDataN:  DoStor=T MaxTD1= 7 Len=  274
 Number of processors reduced to  10 by ecpmxn.
 Symmetrizing basis deriv contribution to polar:
 IMax=3 JMax=2 DiffMx= 0.00D+00
 G2DrvN: will do    49 centers at a time, making    1 passes.
 Calling FoFCou, ICntrl=  3107 FMM=F I1Cent=   0 AccDes= 0.00D+00.
 NEqPCM:  Using equilibrium solvation (IEInf=0, Eps=  78.3553, EpsInf=   1.7778)
 G2PCM: DoFxE=T DoFxN=T DoGrad=T DoDP/DQ/DG/TGxP=FFFF NFrqRd=   0 IEInf=0 SqF1=F DoCFld=F IF1Alg=4.
 End of G2Drv F.D. properties file   721 does not exist.
 End of G2Drv F.D. properties file   722 does not exist.
 End of G2Drv F.D. properties file   788 does not exist.
          IDoAtm=111111111111111111111111111111111111111111111111
 NEqPCM:  Using equilibrium solvation (IEInf=0, Eps=  78.3553, EpsInf=   1.7778)
          Differentiating once with respect to nuclear coordinates.
 CalDSu exits because no D1Ps are significant.
          There are   147 degrees of freedom in the 1st order CPHF.  IDoFFX=6 NUNeed=     0.
    141 vectors produced by pass  0 Test12= 7.26D-14 1.00D-09 XBig12= 1.33D-01 7.77D-02.
 AX will form   141 AO Fock derivatives at one time.
    141 vectors produced by pass  1 Test12= 7.26D-14 1.00D-09 XBig12= 1.49D-02 3.45D-02.
    141 vectors produced by pass  2 Test12= 7.26D-14 1.00D-09 XBig12= 5.00D-04 3.97D-03.
    141 vectors produced by pass  3 Test12= 7.26D-14 1.00D-09 XBig12= 1.03D-05 3.33D-04.
    141 vectors produced by pass  4 Test12= 7.26D-14 1.00D-09 XBig12= 1.18D-07 3.51D-05.
    141 vectors produced by pass  5 Test12= 7.26D-14 1.00D-09 XBig12= 9.89D-10 2.02D-06.
    141 vectors produced by pass  6 Test12= 7.26D-14 1.00D-09 XBig12= 6.75D-12 1.45D-07.
     72 vectors produced by pass  7 Test12= 7.26D-14 1.00D-09 XBig12= 4.82D-14 1.15D-08.
     25 vectors produced by pass  8 Test12= 7.26D-14 1.00D-09 XBig12= 2.13D-14 1.10D-08.
     12 vectors produced by pass  9 Test12= 7.26D-14 1.00D-09 XBig12= 6.54D-15 4.84D-09.
     10 vectors produced by pass 10 Test12= 7.26D-14 1.00D-09 XBig12= 5.27D-15 4.61D-09.
     10 vectors produced by pass 11 Test12= 7.26D-14 1.00D-09 XBig12= 7.27D-15 4.63D-09.
     10 vectors produced by pass 12 Test12= 7.26D-14 1.00D-09 XBig12= 1.10D-14 5.64D-09.
      8 vectors produced by pass 13 Test12= 7.26D-14 1.00D-09 XBig12= 8.07D-15 6.01D-09.
      8 vectors produced by pass 14 Test12= 7.26D-14 1.00D-09 XBig12= 6.58D-15 4.50D-09.
      8 vectors produced by pass 15 Test12= 7.26D-14 1.00D-09 XBig12= 5.90D-15 4.14D-09.
      8 vectors produced by pass 16 Test12= 7.26D-14 1.00D-09 XBig12= 1.01D-14 6.12D-09.
      6 vectors produced by pass 17 Test12= 7.26D-14 1.00D-09 XBig12= 6.01D-15 4.80D-09.
      5 vectors produced by pass 18 Test12= 7.26D-14 1.00D-09 XBig12= 8.08D-15 4.44D-09.
      5 vectors produced by pass 19 Test12= 7.26D-14 1.00D-09 XBig12= 3.98D-15 3.26D-09.
      5 vectors produced by pass 20 Test12= 7.26D-14 1.00D-09 XBig12= 1.03D-14 5.18D-09.
      5 vectors produced by pass 21 Test12= 7.26D-14 1.00D-09 XBig12= 6.36D-15 4.63D-09.
      5 vectors produced by pass 22 Test12= 7.26D-14 1.00D-09 XBig12= 8.87D-15 4.68D-09.
      5 vectors produced by pass 23 Test12= 7.26D-14 1.00D-09 XBig12= 5.55D-15 3.69D-09.
      5 vectors produced by pass 24 Test12= 7.26D-14 1.00D-09 XBig12= 1.14D-14 5.66D-09.
      5 vectors produced by pass 25 Test12= 7.26D-14 1.00D-09 XBig12= 1.18D-14 5.60D-09.
      5 vectors produced by pass 26 Test12= 7.26D-14 1.00D-09 XBig12= 1.23D-14 7.54D-09.
      5 vectors produced by pass 27 Test12= 7.26D-14 1.00D-09 XBig12= 7.79D-15 4.49D-09.
      5 vectors produced by pass 28 Test12= 7.26D-14 1.00D-09 XBig12= 6.84D-15 3.78D-09.
      5 vectors produced by pass 29 Test12= 7.26D-14 1.00D-09 XBig12= 8.14D-15 4.01D-09.
      5 vectors produced by pass 30 Test12= 7.26D-14 1.00D-09 XBig12= 6.20D-15 3.94D-09.
      5 vectors produced by pass 31 Test12= 7.26D-14 1.00D-09 XBig12= 6.85D-15 4.60D-09.
      5 vectors produced by pass 32 Test12= 7.26D-14 1.00D-09 XBig12= 1.02D-14 5.55D-09.
      5 vectors produced by pass 33 Test12= 7.26D-14 1.00D-09 XBig12= 6.95D-15 3.44D-09.
      5 vectors produced by pass 34 Test12= 7.26D-14 1.00D-09 XBig12= 5.60D-15 3.40D-09.
      4 vectors produced by pass 35 Test12= 7.26D-14 1.00D-09 XBig12= 2.30D-15 2.50D-09.
      4 vectors produced by pass 36 Test12= 7.26D-14 1.00D-09 XBig12= 2.36D-15 2.51D-09.
      4 vectors produced by pass 37 Test12= 7.26D-14 1.00D-09 XBig12= 6.13D-15 4.12D-09.
      4 vectors produced by pass 38 Test12= 7.26D-14 1.00D-09 XBig12= 3.47D-15 3.30D-09.
      4 vectors produced by pass 39 Test12= 7.26D-14 1.00D-09 XBig12= 3.48D-15 2.63D-09.
      4 vectors produced by pass 40 Test12= 7.26D-14 1.00D-09 XBig12= 8.26D-15 4.11D-09.
      4 vectors produced by pass 41 Test12= 7.26D-14 1.00D-09 XBig12= 7.50D-15 4.49D-09.
      4 vectors produced by pass 42 Test12= 7.26D-14 1.00D-09 XBig12= 6.58D-15 3.44D-09.
      4 vectors produced by pass 43 Test12= 7.26D-14 1.00D-09 XBig12= 4.36D-15 2.87D-09.
      4 vectors produced by pass 44 Test12= 7.26D-14 1.00D-09 XBig12= 3.79D-15 2.64D-09.
      4 vectors produced by pass 45 Test12= 7.26D-14 1.00D-09 XBig12= 5.15D-15 4.03D-09.
      4 vectors produced by pass 46 Test12= 7.26D-14 1.00D-09 XBig12= 4.44D-15 3.39D-09.
      4 vectors produced by pass 47 Test12= 7.26D-14 1.00D-09 XBig12= 3.76D-15 2.61D-09.
      4 vectors produced by pass 48 Test12= 7.26D-14 1.00D-09 XBig12= 9.69D-15 3.91D-09.
      4 vectors produced by pass 49 Test12= 7.26D-14 1.00D-09 XBig12= 1.42D-14 5.10D-09.
      4 vectors produced by pass 50 Test12= 7.26D-14 1.00D-09 XBig12= 5.50D-15 3.21D-09.
      4 vectors produced by pass 51 Test12= 7.26D-14 1.00D-09 XBig12= 6.35D-15 3.44D-09.
      4 vectors produced by pass 52 Test12= 7.26D-14 1.00D-09 XBig12= 8.34D-15 3.73D-09.
      4 vectors produced by pass 53 Test12= 7.26D-14 1.00D-09 XBig12= 3.35D-15 2.73D-09.
      4 vectors produced by pass 54 Test12= 7.26D-14 1.00D-09 XBig12= 3.33D-15 2.92D-09.
      4 vectors produced by pass 55 Test12= 7.26D-14 1.00D-09 XBig12= 9.79D-15 5.07D-09.
      4 vectors produced by pass 56 Test12= 7.26D-14 1.00D-09 XBig12= 7.77D-15 3.23D-09.
      4 vectors produced by pass 57 Test12= 7.26D-14 1.00D-09 XBig12= 9.37D-15 3.89D-09.
      3 vectors produced by pass 58 Test12= 7.26D-14 1.00D-09 XBig12= 2.23D-15 2.11D-09.
      3 vectors produced by pass 59 Test12= 7.26D-14 1.00D-09 XBig12= 1.50D-15 1.85D-09.
      3 vectors produced by pass 60 Test12= 7.26D-14 1.00D-09 XBig12= 3.68D-15 2.39D-09.
      3 vectors produced by pass 61 Test12= 7.26D-14 1.00D-09 XBig12= 2.06D-15 1.86D-09.
      2 vectors produced by pass 62 Test12= 7.26D-14 1.00D-09 XBig12= 1.19D-15 1.78D-09.
 InvSVY:  IOpt=1 It=  1 EMax= 3.33D-16
 Solved reduced A of dimension  1355 with   147 vectors.
 End of Minotr F.D. properties file   721 does not exist.
 End of Minotr F.D. properties file   722 does not exist.
 End of Minotr F.D. properties file   788 does not exist.

 **********************************************************************

            Population analysis using the SCF Density.

 **********************************************************************

 Orbital symmetries:
       Occupied  (A) (A) (A) (A) (A) (A) (A) (A) (A) (A) (A) (A)
                 (A) (A) (A) (A) (A) (A) (A) (A) (A) (A) (A) (A)
                 (A) (A) (A) (A) (A) (A) (A) (A) (A) (A) (A) (A)
                 (A) (A) (A) (A) (A) (A) (A) (A) (A) (A) (A) (A)
                 (A) (A) (A) (A) (A) (A) (A) (A) (A) (A) (A) (A)
                 (A) (A) (A) (A) (A) (A) (A) (A) (A) (A) (A) (A)
                 (A) (A) (A) (A) (A) (A) (A) (A) (A) (A) (A) (A)
                 (A) (A) (A) (A)
       Virtual   (A) (A) (A) (A) (A) (A) (A) (A) (A) (A) (A) (A)
                 (A) (A) (A) (A) (A) (A) (A) (A) (A) (A) (A) (A)
                 (A) (A) (A) (A) (A) (A) (A) (A) (A) (A) (A) (A)
                 (A) (A) (A) (A) (A) (A) (A) (A) (A) (A) (A) (A)
                 (A) (A) (A) (A) (A) (A) (A) (A) (A) (A) (A) (A)
                 (A) (A) (A) (A) (A) (A) (A) (A) (A) (A) (A) (A)
                 (A) (A) (A) (A) (A) (A) (A) (A) (A) (A) (A) (A)
                 (A) (A) (A) (A) (A) (A) (A) (A) (A) (A) (A) (A)
                 (A) (A) (A) (A) (A) (A) (A) (A) (A) (A) (A) (A)
                 (A) (A) (A) (A) (A) (A) (A) (A) (A) (A) (A) (A)
                 (A) (A) (A) (A) (A) (A) (A) (A) (A) (A) (A) (A)
                 (A) (A) (A) (A) (A) (A) (A) (A) (A) (A) (A) (A)
                 (A) (A) (A) (A) (A) (A) (A) (A) (A) (A) (A) (A)
                 (A) (A) (A) (A) (A) (A) (A) (A) (A) (A) (A) (A)
                 (A) (A) (A) (A) (A) (A) (A) (A) (A) (A) (A) (A)
                 (A) (A) (A) (A) (A) (A) (A) (A) (A) (A) (A) (A)
                 (A) (A) (A) (A) (A) (A) (A) (A) (A) (A) (A) (A)
                 (A) (A) (A) (A) (A) (A) (A) (A) (A) (A) (A) (A)
                 (A) (A) (A) (A) (A) (A) (A) (A) (A) (A) (A) (A)
                 (A) (A) (A) (A) (A) (A) (A) (A) (A) (A) (A) (A)
                 (A) (A) (A) (A) (A) (A) (A) (A) (A) (A) (A) (A)
                 (A) (A) (A) (A) (A) (A) (A) (A) (A) (A) (A) (A)
                 (A) (A) (A) (A) (A) (A) (A) (A) (A) (A) (A) (A)
                 (A) (A) (A) (A) (A) (A) (A) (A) (A) (A) (A) (A)
                 (A) (A) (A) (A) (A) (A) (A) (A) (A) (A) (A) (A)
                 (A) (A) (A) (A) (A) (A) (A) (A) (A) (A) (A) (A)
                 (A) (A) (A) (A) (A) (A) (A) (A) (A) (A) (A) (A)
                 (A) (A) (A) (A) (A) (A) (A) (A) (A) (A) (A) (A)
                 (A) (A) (A) (A) (A) (A) (A) (A) (A) (A) (A) (A)
                 (A) (A) (A) (A) (A) (A) (A) (A) (A) (A) (A) (A)
                 (A) (A) (A) (A) (A) (A) (A) (A) (A) (A) (A) (A)
                 (A) (A) (A) (A) (A) (A) (A) (A) (A) (A) (A) (A)
                 (A) (A) (A) (A) (A) (A) (A) (A) (A) (A) (A) (A)
                 (A) (A) (A) (A) (A) (A) (A) (A) (A) (A) (A) (A)
                 (A) (A) (A) (A) (A) (A) (A) (A) (A) (A) (A) (A)
                 (A) (A) (A) (A) (A) (A) (A) (A) (A) (A) (A) (A)
                 (A) (A) (A) (A) (A) (A) (A) (A) (A) (A) (A) (A)
                 (A) (A) (A) (A) (A) (A) (A) (A) (A) (A) (A) (A)
                 (A) (A) (A) (A) (A) (A) (A) (A) (A) (A) (A) (A)
                 (A) (A) (A) (A) (A) (A) (A) (A) (A) (A) (A) (A)
                 (A) (A) (A) (A) (A) (A) (A) (A) (A) (A) (A) (A)
                 (A) (A) (A) (A) (A) (A) (A) (A) (A) (A) (A) (A)
                 (A) (A) (A) (A) (A) (A) (A) (A) (A) (A) (A) (A)
                 (A) (A) (A) (A) (A) (A) (A) (A) (A) (A) (A) (A)
                 (A) (A) (A) (A) (A) (A) (A) (A) (A) (A) (A) (A)
                 (A) (A) (A) (A) (A) (A) (A) (A) (A) (A) (A) (A)
                 (A) (A) (A) (A) (A) (A) (A) (A) (A) (A) (A) (A)
                 (A) (A) (A) (A) (A) (A) (A) (A) (A) (A) (A) (A)
                 (A) (A) (A) (A) (A) (A) (A) (A) (A) (A) (A) (A)
                 (A) (A) (A) (A) (A) (A) (A) (A) (A) (A) (A) (A)
                 (A) (A) (A) (A) (A) (A) (A) (A) (A) (A) (A) (A)
                 (A) (A) (A) (A) (A) (A) (A) (A) (A) (A) (A) (A)
                 (A) (A) (A) (A) (A) (A) (A) (A) (A) (A) (A) (A)
                 (A) (A) (A) (A) (A) (A) (A) (A) (A) (A) (A) (A)
                 (A) (A) (A) (A) (A) (A) (A) (A) (A) (A) (A) (A)
                 (A) (A) (A) (A) (A) (A) (A) (A) (A) (A) (A) (A)
                 (A) (A) (A) (A) (A) (A) (A) (A) (A) (A) (A) (A)
                 (A) (A) (A) (A) (A) (A) (A) (A) (A) (A) (A) (A)
                 (A) (A) (A) (A) (A) (A) (A) (A) (A) (A) (A) (A)
                 (A) (A) (A) (A) (A) (A) (A) (A) (A) (A) (A) (A)
                 (A) (A) (A) (A) (A) (A) (A) (A) (A) (A) (A) (A)
                 (A) (A) (A) (A) (A) (A) (A) (A) (A) (A) (A) (A)
                 (A) (A) (A) (A) (A) (A) (A) (A) (A) (A) (A) (A)
                 (A) (A) (A) (A) (A) (A) (A) (A) (A) (A) (A) (A)
                 (A) (A) (A) (A) (A) (A) (A) (A) (A) (A) (A) (A)
                 (A) (A) (A) (A) (A) (A) (A) (A) (A) (A) (A) (A)
                 (A) (A) (A) (A) (A) (A) (A) (A) (A) (A) (A) (A)
                 (A) (A) (A) (A) (A) (A) (A) (A) (A) (A) (A) (A)
                 (A) (A) (A) (A) (A) (A) (A) (A) (A)
 The electronic state is 1-A.
 Alpha  occ. eigenvalues --  -19.23718 -14.46610 -10.37337 -10.33665 -10.31170
 Alpha  occ. eigenvalues --  -10.30048 -10.29681 -10.29578 -10.29423 -10.29409
 Alpha  occ. eigenvalues --  -10.29359 -10.29284 -10.29244 -10.28960 -10.28951
 Alpha  occ. eigenvalues --  -10.28884 -10.28852 -10.28802 -10.28124 -10.28089
 Alpha  occ. eigenvalues --  -10.27807 -10.27683 -10.27558 -10.27457 -10.24274
 Alpha  occ. eigenvalues --   -1.14325  -1.03221  -0.97116  -0.96869  -0.95519
 Alpha  occ. eigenvalues --   -0.91361  -0.86890  -0.85728  -0.85405  -0.85038
 Alpha  occ. eigenvalues --   -0.83932  -0.83509  -0.79031  -0.77977  -0.74047
 Alpha  occ. eigenvalues --   -0.71550  -0.70483  -0.70267  -0.69212  -0.68387
 Alpha  occ. eigenvalues --   -0.66278  -0.63666  -0.62414  -0.60907  -0.60383
 Alpha  occ. eigenvalues --   -0.58565  -0.56988  -0.55965  -0.55496  -0.54864
 Alpha  occ. eigenvalues --   -0.54559  -0.54013  -0.53214  -0.52667  -0.52403
 Alpha  occ. eigenvalues --   -0.52090  -0.51295  -0.51002  -0.50490  -0.49661
 Alpha  occ. eigenvalues --   -0.49310  -0.48389  -0.47817  -0.46832  -0.46647
 Alpha  occ. eigenvalues --   -0.46219  -0.45342  -0.45002  -0.44457  -0.43464
 Alpha  occ. eigenvalues --   -0.42860  -0.42538  -0.41913  -0.41339  -0.40639
 Alpha  occ. eigenvalues --   -0.35192  -0.34158  -0.33948  -0.33890  -0.33391
 Alpha  occ. eigenvalues --   -0.32241  -0.31922  -0.23926
 Alpha virt. eigenvalues --    0.00385   0.04245   0.04825   0.05036   0.06269
 Alpha virt. eigenvalues --    0.06823   0.10293   0.10685   0.12412   0.12847
 Alpha virt. eigenvalues --    0.13316   0.13672   0.13920   0.14450   0.15422
 Alpha virt. eigenvalues --    0.16090   0.16481   0.17014   0.17263   0.18081
 Alpha virt. eigenvalues --    0.18231   0.18491   0.18645   0.19173   0.19354
 Alpha virt. eigenvalues --    0.19713   0.20263   0.20675   0.20937   0.21170
 Alpha virt. eigenvalues --    0.22068   0.22266   0.22553   0.23626   0.23795
 Alpha virt. eigenvalues --    0.24409   0.24885   0.25176   0.26158   0.26526
 Alpha virt. eigenvalues --    0.27357   0.27798   0.27917   0.28288   0.28625
 Alpha virt. eigenvalues --    0.29239   0.29524   0.29693   0.29819   0.30786
 Alpha virt. eigenvalues --    0.31116   0.31442   0.31496   0.31748   0.32376
 Alpha virt. eigenvalues --    0.32812   0.32978   0.33066   0.33379   0.33576
 Alpha virt. eigenvalues --    0.34021   0.34163   0.34812   0.35684   0.36166
 Alpha virt. eigenvalues --    0.36402   0.36860   0.37319   0.37710   0.38168
 Alpha virt. eigenvalues --    0.38556   0.39082   0.39172   0.39842   0.39992
 Alpha virt. eigenvalues --    0.40521   0.41192   0.41623   0.42484   0.42693
 Alpha virt. eigenvalues --    0.43029   0.43363   0.43866   0.44081   0.44666
 Alpha virt. eigenvalues --    0.44844   0.45334   0.45366   0.46220   0.46281
 Alpha virt. eigenvalues --    0.46723   0.46962   0.47265   0.47714   0.47828
 Alpha virt. eigenvalues --    0.48376   0.48556   0.48819   0.49244   0.49746
 Alpha virt. eigenvalues --    0.49976   0.50030   0.50478   0.50873   0.51425
 Alpha virt. eigenvalues --    0.51602   0.51737   0.52065   0.52215   0.52852
 Alpha virt. eigenvalues --    0.52954   0.53788   0.54138   0.54436   0.54510
 Alpha virt. eigenvalues --    0.54820   0.55513   0.55717   0.56309   0.56455
 Alpha virt. eigenvalues --    0.56976   0.57193   0.57894   0.58071   0.58297
 Alpha virt. eigenvalues --    0.58630   0.58739   0.59248   0.59596   0.60099
 Alpha virt. eigenvalues --    0.60538   0.60747   0.61347   0.61521   0.62287
 Alpha virt. eigenvalues --    0.62552   0.63008   0.63414   0.64173   0.64396
 Alpha virt. eigenvalues --    0.64897   0.65685   0.65933   0.67033   0.67541
 Alpha virt. eigenvalues --    0.68251   0.69222   0.70267   0.70834   0.71989
 Alpha virt. eigenvalues --    0.72372   0.73202   0.73984   0.74286   0.74978
 Alpha virt. eigenvalues --    0.75225   0.75574   0.75967   0.76570   0.77529
 Alpha virt. eigenvalues --    0.77954   0.77966   0.78591   0.78862   0.79406
 Alpha virt. eigenvalues --    0.79643   0.80183   0.80519   0.81572   0.81990
 Alpha virt. eigenvalues --    0.82498   0.83328   0.83781   0.84000   0.84554
 Alpha virt. eigenvalues --    0.84875   0.85305   0.85458   0.86086   0.87155
 Alpha virt. eigenvalues --    0.87868   0.88225   0.88647   0.88931   0.89246
 Alpha virt. eigenvalues --    0.90065   0.90719   0.91320   0.92023   0.92746
 Alpha virt. eigenvalues --    0.93288   0.93996   0.94990   0.95203   0.96484
 Alpha virt. eigenvalues --    0.96689   0.97712   0.97918   0.98404   0.98799
 Alpha virt. eigenvalues --    0.99290   0.99527   0.99735   1.01175   1.01575
 Alpha virt. eigenvalues --    1.02147   1.02521   1.03600   1.04084   1.05018
 Alpha virt. eigenvalues --    1.05301   1.06361   1.06951   1.08269   1.08780
 Alpha virt. eigenvalues --    1.09114   1.10044   1.10205   1.10712   1.11428
 Alpha virt. eigenvalues --    1.12159   1.12562   1.13005   1.13135   1.14780
 Alpha virt. eigenvalues --    1.15251   1.15713   1.16882   1.17445   1.18843
 Alpha virt. eigenvalues --    1.19193   1.20339   1.20608   1.20982   1.22271
 Alpha virt. eigenvalues --    1.22490   1.23735   1.24499   1.24922   1.25363
 Alpha virt. eigenvalues --    1.26148   1.26488   1.27710   1.29086   1.29556
 Alpha virt. eigenvalues --    1.29680   1.30591   1.30928   1.31815   1.32233
 Alpha virt. eigenvalues --    1.33133   1.33487   1.33899   1.34195   1.34678
 Alpha virt. eigenvalues --    1.35088   1.35619   1.35917   1.36794   1.37538
 Alpha virt. eigenvalues --    1.37858   1.38297   1.39095   1.39445   1.39882
 Alpha virt. eigenvalues --    1.40568   1.41151   1.41450   1.42221   1.43587
 Alpha virt. eigenvalues --    1.44042   1.44286   1.45298   1.46542   1.47475
 Alpha virt. eigenvalues --    1.47953   1.48702   1.49372   1.50461   1.51443
 Alpha virt. eigenvalues --    1.52020   1.52709   1.53729   1.53893   1.54372
 Alpha virt. eigenvalues --    1.54749   1.55038   1.55922   1.56539   1.57124
 Alpha virt. eigenvalues --    1.58096   1.58305   1.58718   1.59338   1.59641
 Alpha virt. eigenvalues --    1.60339   1.60704   1.61059   1.62166   1.62481
 Alpha virt. eigenvalues --    1.62850   1.64190   1.64763   1.65709   1.65998
 Alpha virt. eigenvalues --    1.67316   1.67729   1.67887   1.68683   1.69394
 Alpha virt. eigenvalues --    1.69794   1.70659   1.71589   1.72144   1.72300
 Alpha virt. eigenvalues --    1.72842   1.73149   1.74505   1.74784   1.74989
 Alpha virt. eigenvalues --    1.75692   1.76303   1.76895   1.77699   1.77798
 Alpha virt. eigenvalues --    1.78096   1.78472   1.78932   1.79352   1.79999
 Alpha virt. eigenvalues --    1.80142   1.80695   1.81225   1.81671   1.82082
 Alpha virt. eigenvalues --    1.82737   1.83549   1.83713   1.83925   1.84590
 Alpha virt. eigenvalues --    1.85618   1.86392   1.86686   1.88471   1.89998
 Alpha virt. eigenvalues --    1.90211   1.91693   1.92503   1.93376   1.94469
 Alpha virt. eigenvalues --    1.94982   1.95672   1.96424   1.97292   1.98181
 Alpha virt. eigenvalues --    1.98747   1.99237   2.00322   2.01206   2.01758
 Alpha virt. eigenvalues --    2.02931   2.03416   2.04140   2.05506   2.06211
 Alpha virt. eigenvalues --    2.07109   2.07767   2.09225   2.09619   2.10113
 Alpha virt. eigenvalues --    2.10779   2.12082   2.12867   2.13296   2.14207
 Alpha virt. eigenvalues --    2.14664   2.15207   2.15644   2.16376   2.16969
 Alpha virt. eigenvalues --    2.17446   2.17891   2.18199   2.18902   2.20326
 Alpha virt. eigenvalues --    2.20703   2.21470   2.22415   2.24012   2.25148
 Alpha virt. eigenvalues --    2.25296   2.26125   2.26734   2.27831   2.28545
 Alpha virt. eigenvalues --    2.28964   2.29647   2.30471   2.30794   2.31238
 Alpha virt. eigenvalues --    2.32259   2.33179   2.33811   2.34193   2.35341
 Alpha virt. eigenvalues --    2.35812   2.36926   2.38048   2.40243   2.40509
 Alpha virt. eigenvalues --    2.42617   2.43160   2.44134   2.44865   2.45925
 Alpha virt. eigenvalues --    2.46322   2.47872   2.48548   2.48772   2.49322
 Alpha virt. eigenvalues --    2.52074   2.52528   2.52682   2.53271   2.54456
 Alpha virt. eigenvalues --    2.55130   2.56151   2.58025   2.58512   2.58872
 Alpha virt. eigenvalues --    2.59520   2.60117   2.60601   2.61286   2.62423
 Alpha virt. eigenvalues --    2.63154   2.63457   2.63633   2.64851   2.66473
 Alpha virt. eigenvalues --    2.66545   2.66943   2.67525   2.68341   2.69131
 Alpha virt. eigenvalues --    2.70068   2.70086   2.70819   2.71353   2.71887
 Alpha virt. eigenvalues --    2.72403   2.72525   2.73102   2.73913   2.74241
 Alpha virt. eigenvalues --    2.74938   2.75692   2.75934   2.76077   2.76681
 Alpha virt. eigenvalues --    2.76794   2.77138   2.77343   2.77724   2.78277
 Alpha virt. eigenvalues --    2.78681   2.79059   2.79807   2.79864   2.80327
 Alpha virt. eigenvalues --    2.80958   2.81597   2.81906   2.82337   2.83014
 Alpha virt. eigenvalues --    2.83787   2.84184   2.84745   2.84993   2.85436
 Alpha virt. eigenvalues --    2.85593   2.86246   2.86822   2.87217   2.87487
 Alpha virt. eigenvalues --    2.88317   2.89280   2.90073   2.90448   2.90778
 Alpha virt. eigenvalues --    2.90984   2.91257   2.92217   2.93145   2.93484
 Alpha virt. eigenvalues --    2.93770   2.94269   2.94577   2.95097   2.95188
 Alpha virt. eigenvalues --    2.95867   2.96275   2.96639   2.96945   2.97653
 Alpha virt. eigenvalues --    2.98146   2.98375   2.99151   2.99872   3.00679
 Alpha virt. eigenvalues --    3.01637   3.02288   3.03003   3.03548   3.04014
 Alpha virt. eigenvalues --    3.04882   3.06313   3.07119   3.08545   3.09175
 Alpha virt. eigenvalues --    3.10971   3.11647   3.11927   3.12191   3.12866
 Alpha virt. eigenvalues --    3.13691   3.14467   3.14677   3.15237   3.16096
[...]
 ,0.00000117,0.00000206,-0.00000283,0.00001122,0.00012292,0.00019676,0.
 00002732,-0.00000134,-0.00001683,-0.00000040,0.00000463,-0.00001982,-0
 .00003762,0.00000715,0.00003525,0.00000444,0.00001065,-0.00000601,0.00
 000629,-0.00000079,-0.00000548,0.00001411,-0.00000263,0.00000423,-0.00
 000675,0.00000279,-0.00000219,0.00002481,-0.00000248,0.00000267,-0.000
 00692,0.00000224,-0.00000170,0.00000457,-0.00000143,0.00000070,0.00000
 253,0.00000011,-0.00000062,0.00000337,0.00000073,-0.00000289,-0.000004
 15,-0.00000070,0.00000252,0.00000389,0.00001593,0.00005242,-0.00001878
 ,-0.00000715,0.00000107,0.00001833,0.00001367,-0.00000448,0.00001961,-
 0.00003017,-0.00001111,0.00002971,0.00008708,-0.00008098,0.00001778,-0
 .00002383,-0.00000943,-0.00000294,-0.00000162,0.00000521,0.00001018,-0
 .00001100,0.00000071,0.00000412,-0.00000621,-0.00001337,0.00002989,-0.
 00005417,0.00002659,-0.00000183,0.00000738,-0.00000025,0.00000339,-0.0
 0000497,0.00000383,0.00000251,-0.00000262,0.00000061,0.00000660,-0.000
 00646,-0.00000212,-0.00000120,0.00000465,0.00000237,0.00681189,0.00140
 926,-0.00055431,0.00804241,-0.00198973,0.01886293,0.04939780,-0.079474
 63,0.07755107,-0.00471571,0.00753137,-0.01016290,0.00408280,0.00376149
 ,-0.00255113,-0.00008413,-0.00103622,-0.00067516,-0.00270359,-0.001878
 88,-0.00007953,-0.05771639,0.07390934,-0.00013199,0.00000554,-0.000016
 22,0.00046262,-0.00033672,0.00010369,-0.00015070,0.00022159,-0.0000151
 7,0.00005957,0.00011247,0.00008988,0.00001148,0.00002286,-0.00001221,-
 0.00000443,-0.00001075,-0.00000596,0.00000123,-0.00000059,0.00000259,-
 0.00000297,-0.00000407,-0.00000020,-0.00001944,-0.00004655,-0.00006611
 ,0.00003795,0.00001530,0.00002567,-0.00000115,-0.00000384,0.00000576,0
 .00001793,0.00000391,-0.00001500,-0.00000466,-0.00000570,0.00000455,-0
 .00000339,0.00000029,0.00000146,-0.00000728,0.00000121,-0.00000167,0.0
 0000286,-0.00000102,0.00000090,-0.00001301,0.00000122,-0.00000052,0.00
 000380,-0.00000132,0.00000100,-0.00000267,0.00000076,-0.00000040,-0.00
 000158,-0.00000008,0.00000026,-0.00000208,-0.00000024,0.00000177,0.000
 00308,0.00000064,-0.00000321,-0.00000026,-0.00003443,-0.00002136,0.000
 00993,0.00000544,-0.00001080,-0.00002780,-0.00000509,0.00000069,0.0000
 3654,0.00003808,0.00000756,-0.00000317,-0.00004376,-0.00000286,-0.0000
 1538,0.00001633,0.00000471,0.00000410,0.00000143,-0.00000302,-0.000005
 95,0.00000660,0.00000042,-0.00000163,0.00000175,0.00000328,-0.00001009
 ,0.00001587,-0.00001236,0.00000066,-0.00000356,0.00000058,-0.00000198,
 0.00000280,-0.00000211,-0.00000143,0.00000139,-0.00000020,-0.00000276,
 0.00000278,0.00000122,0.00000115,-0.00000235,-0.00000032,0.00043124,-0
 .00083249,0.00172907,0.00237348,-0.00210638,0.00483838,-0.10083524,0.0
 7761512,-0.26210043,-0.01350769,0.01089362,-0.01779899,0.00242393,-0.0
 0287777,-0.00335597,0.00061629,-0.00053579,0.00010632,-0.00013923,0.00
 043306,0.00071194,0.10877577,-0.08327218,0.27579112,-0.00017945,0.0000
 5680,0.00000714,-0.00034643,-0.00066682,0.00003472,0.00003917,-0.00006
 859,-0.00003696,0.00006105,0.00011065,0.00008657,0.00001147,0.00002798
 ,-0.00000979,-0.00000485,-0.00001117,-0.00000678,0.00000127,-0.0000010
 6,0.00000335,-0.00000329,-0.00000579,-0.00000043,-0.00001337,-0.000041
 89,-0.00006473,0.00005331,0.00002241,0.00002745,-0.00000185,-0.0000049
 3,0.00000593,0.00001972,0.00000748,-0.00001523,-0.00000539,-0.00000592
 ,0.00000479,-0.00000371,0.00000007,0.00000156,-0.00000795,0.00000106,-
 0.00000186,0.00000306,-0.00000131,0.00000079,-0.00001409,0.00000126,-0
 .00000038,0.00000415,-0.00000136,0.00000127,-0.00000287,0.00000087,-0.
 00000039,-0.00000170,0.,0.00000032,-0.00000221,-0.00000010,0.00000195,
 0.00000312,0.00000090,-0.00000346,0.00001697,-0.00003590,-0.00002727,0
 .00000663,0.00000533,-0.00000731,-0.00003123,-0.00000285,0.00000877,0.
 00003706,0.00005178,0.00001086,-0.00001703,-0.00005108,-0.00001949,-0.
 00001671,0.00001973,0.00000709,0.00000446,0.00000165,-0.00000389,-0.00
 000717,0.00000698,0.00000018,-0.00000094,0.00000260,0.00000340,-0.0000
 0840,0.00001793,-0.00001131,0.00000192,-0.00000349,0.00000021,-0.00000
 214,0.00000326,-0.00000231,-0.00000128,0.00000166,-0.00000013,-0.00000
 291,0.00000298,0.00000142,0.00000098,-0.00000300,0.00000007,-0.0001443
 0,-0.00069073,0.00006981,0.00380557,0.00340829,0.00153597,-0.00320245,
 0.00586473,-0.00189982,-0.20473286,0.15173693,0.00755472,-0.00539866,0
 .00811090,0.00282895,0.00345699,0.00365818,-0.00255597,-0.00024283,0.0
 0031469,-0.00009990,-0.00145129,-0.00244986,0.00031769,0.21016474,0.00
 008295,0.00010332,-0.00003281,-0.00090124,-0.00028841,0.00004361,0.000
 19721,-0.00037322,-0.00004966,-0.00004568,-0.00008617,-0.00004229,-0.0
 0000188,-0.00002953,0.00000278,0.00000349,0.00000971,0.00000593,-0.000
 00121,0.00000170,-0.00000159,0.00000501,0.00000809,0.00000208,0.000031
 84,0.00005258,0.00005879,-0.00008170,-0.00004461,-0.00003692,0.0000007
 4,0.00000514,-0.00000644,-0.00001562,-0.00000129,0.00000779,0.00000427
 ,0.00000366,-0.00000288,0.00000236,-0.00000031,-0.00000186,0.00000649,
 -0.00000080,0.00000096,-0.00000177,0.00000078,-0.00000072,0.00001157,-
 0.00000161,0.00000008,-0.00000367,0.00000189,-0.00000096,0.00000234,-0
 .00000059,0.00000046,0.00000142,0.00000008,-0.00000027,0.00000181,0.00
 000045,-0.00000143,-0.00000287,-0.00000066,0.00000294,0.00002023,0.000
 01406,-0.00000384,-0.00001352,-0.00000388,0.00001086,0.00001735,0.0000
 0686,0.00000661,-0.00001843,-0.00003068,0.00000389,-0.00002382,0.00002
 281,-0.00001874,0.00000690,-0.00001046,0.00000033,-0.00000109,-0.00000
 003,0.00000178,0.00000340,-0.00000400,-0.00000044,0.00000260,-0.000001
 21,-0.00000258,0.00000900,-0.00001293,0.00000716,0.00000058,0.00000298
 ,-0.00000172,0.00000128,-0.00000185,0.00000148,0.00000114,-0.00000102,
 0.00000017,0.00000210,-0.00000193,-0.00000082,-0.00000134,0.00000109,0
 .00000135,-0.00066941,-0.00028001,0.00012393,0.00321436,0.00439360,-0.
 00239832,0.00740416,-0.00320967,0.00168250,0.15163430,-0.17612918,-0.0
 0796666,0.00704562,-0.00305937,-0.00241300,0.00347577,0.00454227,0.001
 89762,0.00043270,-0.00025194,0.00007136,-0.00248642,-0.00191835,0.0000
 3569,-0.16728276,0.17873665,0.00002894,-0.00000139,0.00001477,-0.00001
 613,0.00001049,0.00013737,0.00002484,0.00002909,0.00001654,0.00000088,
 -0.00001410,-0.00004204,-0.00000889,0.00001427,0.00001292,0.00000093,0
 .00000020,-0.00000138,0.00000044,-0.00000152,-0.00000024,-0.00000302,-
 0.00000626,-0.00000238,-0.00000764,-0.00000818,0.00001170,0.00006783,0
 .00004941,0.00001062,0.00000186,-0.00000261,0.00000200,0.00000122,-0.0
 0000021,0.00000627,-0.00000029,0.00000071,-0.00000070,0.00000069,-0.00
 000006,0.00000012,-0.00000009,-0.00000034,0.00000072,-0.00000105,-0.00
 000036,0.00000061,-0.00000118,0.00000085,-0.00000108,0.00000084,-0.000
 00088,0.00000034,-0.00000012,0.00000007,-0.00000004,-0.00000011,-0.000
 00006,0.00000009,-0.00000025,-0.00000005,0.00000010,-0.00000041,-0.000
 00028,0.00000013,0.00001289,0.00000576,0.00001106,-0.00001762,-0.00000
 671,0.00001423,0.00000557,-0.00000009,0.00000999,0.00000005,0.00000613
 ,-0.00002008,0.00000737,-0.00000037,-0.00000673,0.00000074,-0.00000003
 ,-0.00000034,-0.00000014,0.00000048,-0.00000006,-0.00000008,-0.0000001
 1,-0.00000031,-0.00000041,-0.00000035,0.,0.00000004,0.00000028,0.00000
 048,0.00000093,-0.00000016,0.00000040,-0.00000013,0.00000016,-0.000000
 06,0.,0.00000012,0.00000007,-0.00000002,0.,0.00000005,-0.00000002,-0.0
 0000020,-0.00000011,-0.00008842,0.00001819,-0.00125182,0.00119533,-0.0
 0184365,-0.00458851,0.02156171,-0.01952143,0.00371740,0.00753490,-0.00
 804863,-0.06059513,-0.02066806,0.01882164,0.00567160,-0.00209289,0.001
 38068,-0.00416913,0.00104547,-0.00091642,-0.00001239,-0.00028917,0.000
 57664,0.00106112,-0.00781609,0.00888328,0.05890982,-0.00032539,0.00003
 794,-0.00001237,0.00054207,-0.00063624,0.00104610,-0.00013245,0.000631
 47,-0.00023887,0.00008977,0.00026931,0.00014077,0.00001288,0.00003593,
 -0.00002766,-0.00001010,-0.00001928,-0.00001024,-0.00000014,-0.0000022
 6,0.00000398,-0.00000358,-0.00000775,-0.00000106,-0.00004264,-0.000116
 54,-0.00011012,0.00006428,0.00004961,0.00002646,0.00000221,-0.00000111
 ,0.00000825,0.00002958,-0.00000156,-0.00001600,-0.00000598,-0.00000847
 ,0.00000478,-0.00000392,0.00000074,0.00000305,-0.00001036,0.00000121,-
 0.00000207,0.00000401,-0.00000095,0.00000253,-0.00001799,0.00000119,-0
 .00000309,0.00000573,-0.00000171,0.00000187,-0.00000371,0.00000113,-0.
 00000055,-0.00000207,-0.00000022,0.00000043,-0.00000295,-0.00000026,0.
 00000235,0.00000418,0.00000004,-0.00000279,0.00000551,-0.00005889,-0.0
 0004073,0.00001689,0.00000106,-0.00001570,-0.00002353,-0.00001404,-0.0
 0000107,0.00003135,0.00003805,0.00001742,-0.00001545,-0.00008166,-0.00
 004148,-0.00002742,0.00003318,0.00001213,0.00000602,0.00000403,-0.0000
 0705,-0.00000980,0.00000974,-0.00000052,-0.00000144,0.00000436,0.00000
 549,-0.00001010,0.00002632,-0.00001817,-0.00000102,-0.00000596,0.00000
 126,-0.00000343,0.00000573,-0.00000331,-0.00000232,0.00000222,-0.00000
 028,-0.00000463,0.00000422,0.00000201,0.00000139,-0.00000441,-0.000000
 11,-0.00017364,0.00659694,-0.00054946,-0.00079886,-0.00028669,-0.00050
 859,0.00259086,0.00450373,-0.00262275,0.00832853,-0.00442145,-0.013033
 63,-0.08024950,0.04049628,0.08125749,-0.00312637,0.00712061,0.02190443
 ,-0.00046829,-0.00065709,0.00012838,0.00020879,-0.00022076,-0.00062164
 ,-0.00147961,-0.00252069,0.00058711,0.07630509,0.00045436,0.00004672,0
 .00012116,-0.00050174,0.00072127,-0.00092521,0.00006512,-0.00039091,-0
 .00003484,-0.00013048,-0.00035670,-0.00027567,-0.00003830,-0.00002655,
 0.00004558,0.00001074,0.00002429,0.00001065,-0.00000042,0.00000220,-0.
 00000328,0.00000123,0.00000019,-0.00000272,0.00001346,0.00010056,0.000
 17790,0.00001924,0.00002004,-0.00003149,0.00000139,0.00000267,-0.00001
 638,-0.00003677,-0.00000108,0.00002081,0.00000399,0.00001051,-0.000006
 11,0.00000596,-0.00000062,-0.00000347,0.00001197,-0.00000275,0.0000036
 1,-0.00000574,0.00000385,-0.00000262,0.00002569,-0.00000095,0.00000284
 ,-0.00000649,0.00000161,-0.00000177,0.00000442,-0.00000139,0.00000051,
 0.00000244,0.00000016,-0.00000050,0.00000333,0.00000023,-0.00000284,-0
 .00000343,-0.00000120,0.00000317,0.00001732,0.00001387,0.00002898,0.00
 000046,-0.00000071,-0.00000255,0.00001682,0.00001241,-0.00000848,-0.00
 000001,-0.00003623,0.00001672,-0.00000002,0.00009398,0.00008745,0.0000
 3522,-0.00005086,-0.00001111,-0.00001008,-0.00000770,0.00000795,0.0000
 1225,-0.00001190,0.00000047,0.00000149,-0.00000235,-0.00000304,0.00000
 938,-0.00002312,0.00001353,0.00000212,0.00000794,-0.00000126,0.0000046
 8,-0.00000616,0.00000414,0.00000270,-0.00000228,0.00000031,0.00000459,
 -0.00000443,-0.00000231,-0.00000210,0.00000533,0.00000054,0.00677743,0
 .00149999,-0.00017982,0.00007545,-0.00115305,0.00073137,0.00427022,0.0
 0401659,0.00208575,-0.00357638,0.00752699,0.01018357,0.04089029,-0.079
 14990,-0.08212349,0.00576904,-0.00213575,-0.01929896,-0.00064504,-0.00
 062745,-0.00002509,-0.00014337,0.00022888,0.00053829,-0.00255664,-0.00
 197498,-0.00027587,-0.04817688,0.07344982,0.00016565,-0.00000299,-0.00
 003787,-0.00049963,0.00037815,0.00004563,0.00014979,-0.00025609,-0.000
 05441,-0.00006532,-0.00013353,-0.00008830,-0.00000776,-0.00002943,0.00
 001297,0.00000697,0.00001287,0.00000685,-0.00000048,0.00000187,-0.0000
 0374,0.00000380,0.00000660,0.00000093,0.00002536,0.00006320,0.00007536
 ,-0.00005333,-0.00003928,-0.00004070,0.00000106,0.00000388,-0.00000605
 ,-0.00002073,-0.00000366,0.00001386,0.00000545,0.00000607,-0.00000468,
 0.00000362,-0.00000048,-0.00000205,0.00000845,-0.00000111,0.00000186,-
 0.00000312,0.00000095,-0.00000118,0.00001531,-0.00000134,0.00000043,-0
 .00000436,0.00000152,-0.00000111,0.00000307,-0.00000082,0.00000051,0.0
 0000178,0.00000007,-0.00000033,0.00000229,0.00000029,-0.00000194,-0.00
 000323,-0.00000076,0.00000342,-0.00000085,0.00003775,0.00002394,-0.000
 00978,-0.00000253,0.00000666,0.00002809,0.00000539,-0.00000701,-0.0000
 3769,-0.00004871,-0.00000815,0.00000438,0.00004948,0.00000287,0.000016
 79,-0.00001771,-0.00000598,-0.00000368,-0.00000099,0.00000364,0.000006
 73,-0.00000709,-0.00000047,0.00000140,-0.00000325,-0.00000422,0.000011
 17,-0.00001935,0.00001339,-0.00000071,0.00000413,-0.00000070,0.0000021
 2,-0.00000336,0.00000237,0.00000159,-0.00000161,0.00000024,0.00000326,
 -0.00000310,-0.00000130,-0.00000094,0.00000258,0.00000045,-0.00024927,
 0.00010557,0.00185766,-0.00052824,0.00054596,0.00020789,-0.00311455,0.
 00238168,-0.00274036,0.01071152,-0.01046364,-0.01780577,0.08106561,-0.
 08234028,-0.28252221,-0.00156374,0.00139107,0.00273016,0.00011448,-0.0
 0005737,-0.00004297,0.00047226,-0.00053524,-0.00101818,-0.00004872,0.0
 0023466,0.00102428,-0.08701124,0.08887004,0.29763994,0.00019138,0.0002
 8986,-0.00019821,-0.00204896,-0.00118627,0.00085751,0.00048220,-0.0013
 8819,-0.00014808,-0.00013042,-0.00025865,0.00013321,-0.00001968,-0.000
 12887,-0.00002477,0.00001362,0.00003723,0.00002735,0.00000051,0.000021
 40,-0.00000149,0.00002203,0.00002814,0.00000879,-0.00037974,-0.0001208
 1,0.00004487,-0.00180037,-0.00110532,0.00021584,-0.00005775,0.00007801
 ,-0.00001517,-0.00005437,0.00000008,-0.00001732,0.00001859,0.00001320,
 -0.00001045,0.00000604,-0.00000140,-0.00000819,0.00002439,-0.00000275,
 0.00000073,-0.00000216,0.00000743,-0.00000578,0.00005240,-0.00001283,0
 .00000707,-0.00001513,0.00001159,-0.00000303,0.00000896,-0.00000253,0.
 00000153,0.00000519,0.00000069,-0.00000134,0.00000790,0.00000139,-0.00
 000560,-0.00000792,-0.00000079,0.00000675,0.00001244,0.00007427,-0.000
 05080,0.00001564,0.00001249,-0.00001241,0.00004061,0.00002020,-0.00001
 528,0.00011478,-0.00000680,-0.00001396,-0.00007114,0.00008358,-0.00026
 726,-0.00000955,-0.00001541,0.00004629,0.00000463,0.00000677,-0.000003
 94,0.00000881,-0.00001696,0.00000008,0.00001603,-0.00000469,-0.0000171
 5,0.00005512,-0.00007859,0.00003282,0.00003052,-0.00001291,-0.00002198
 ,0.00000364,-0.00000537,0.00000516,0.00000442,-0.00000351,0.00000004,0
 .00000837,-0.00000841,-0.00000320,-0.00000473,0.00000303,0.00000615,0.
 00780182,-0.00337404,0.00803442,0.00322999,0.00374315,0.00232174,-0.00
 107986,0.00013584,0.00082396,0.00019385,0.00665879,0.00073123,-0.00500
 967,0.00685596,-0.02161456,-0.09488623,0.04922600,-0.09266470,0.000406
 75,-0.00010256,0.00046923,-0.00050587,-0.00062515,-0.00007169,-0.00036
 468,0.00045014,-0.00106835,-0.00129245,-0.00267888,0.00039538,0.094960
 02,-0.00056894,0.00007427,0.00008911,-0.00276936,-0.00105078,-0.000319
 08,0.00030577,-0.00101937,0.00010494,0.00011756,0.00067619,0.00072792,
 0.00012603,-0.00017757,-0.00017649,-0.00001713,-0.00001189,0.00001188,
 -0.00001057,0.00001387,0.00000369,0.00004441,0.00007634,0.00003069,0.0
 0020951,-0.00006431,-0.00031557,-0.00185939,-0.00117168,-0.00006871,0.
 00003101,0.00001727,-0.00000634,0.00000507,-0.00002281,-0.00008964,0.0
 0001090,-0.00001136,0.00000330,-0.00000923,0.00000231,0.00000095,0.000
 00144,0.00000357,-0.00001005,0.00001364,0.00000348,-0.00000098,0.00000
 667,-0.00001429,0.00000430,-0.00000747,0.00001134,-0.00000305,0.000001
 35,-0.00000019,0.00000063,0.00000128,0.00000022,-0.00000080,0.00000257
 ,0.00000085,-0.00000080,-0.00000121,0.00000017,0.00000368,0.00000496,0
 .00002519,-0.00008691,0.00000980,-0.00000628,-0.00003535,0.00003346,-0
 .00000272,-0.00001362,0.00017350,-0.00003250,0.00000965,-0.00009458,-0
 .00007402,-0.00010282,-0.00001262,0.00001923,-0.00001468,0.00000106,0.
 00000749,0.00000094,-0.00000622,0.00000685,-0.00000451,0.00000604,0.00
 000267,0.00000438,0.00000289,0.00001334,-0.00000566,-0.00002164,0.0000
 2027,0.00000845,-0.00000189,0.00000277,-0.00000189,-0.00000125,0.00000
 120,0.00000019,-0.00000253,0.00000166,0.00000101,-0.00000145,-0.000004
 25,0.00000190,-0.00332700,0.00673635,-0.01020534,0.00411903,0.00333021
 ,-0.00221029,-0.00032511,-0.00061932,-0.00029015,0.00626865,0.00186849
 ,-0.00140773,0.00772939,-0.00310534,0.01873544,0.04948580,-0.08059046,
 0.08222458,-0.00022996,0.00023239,-0.00047325,-0.00064470,-0.00060849,
 0.00013062,0.00044816,-0.00018907,0.00085182,-0.00263015,-0.00182108,-
 0.00013006,-0.05661752,0.07744975,0.00036618,-0.00030216,0.00042879,-0
 .00145656,0.00205810,0.00043894,0.00004388,-0.00099252,-0.00007125,0.0
 0005503,-0.00001678,-0.00041945,-0.00013313,0.00023503,0.00016885,0.00
 001033,-0.00001210,-0.00002362,0.00000761,-0.00002151,-0.00000362,-0.0
 0004832,-0.00010187,-0.00003567,-0.00034942,-0.00031474,0.00000953,0.0
 0090367,0.00054708,0.00030000,-0.00002164,-0.00001510,0.00003508,0.000
 02930,0.00000553,0.00003276,-0.00000845,0.00000128,-0.00000607,0.00000
 470,-0.00000030,0.00000577,-0.00000976,-0.00000257,0.00000536,-0.00000
 667,-0.00000683,0.00000579,-0.00001877,0.00001011,-0.00001378,0.000013
 56,-0.00001307,0.00000734,-0.00000404,0.00000186,-0.00000071,-0.000002
 71,-0.00000041,0.00000162,-0.00000439,-0.00000100,0.00000274,0.0000031
 2,-0.00000033,0.00000193,0.00003303,0.00004923,0.00005186,-0.00003676,
 -0.00002683,0.00004546,0.00003067,-0.00000814,0.00000389,-0.00010552,-
 0.00006185,-0.00008306,0.00013797,0.00001020,-0.00004474,-0.00000903,0
 .00000508,0.00001633,0.00000086,-0.00000351,-0.00001015,-0.00000531,0.
 00000312,0.00000189,-0.00001043,-0.00000284,-0.00000279,-0.00001366,0.
 00000640,-0.00000269,0.00002698,-0.00001596,-0.00000904,-0.00000191,0.
 00000392,-0.00000173,0.00000020,0.00000309,0.00000059,-0.00000178,0.00
 000205,0.00000140,0.00000590,-0.00000068,-0.00000249,-0.01201969,0.010
 03376,-0.01877164,0.00250155,-0.00246193,-0.00359807,0.00080529,-0.000
 69050,0.00000488,0.00056333,-0.00043552,0.00185650,0.00221344,-0.00186
 125,0.00457053,-0.09464491,0.08062337,-0.25720587,-0.00070785,0.000472
 13,-0.00100607,-0.00009203,0.00009590,-0.00003066,0.00011724,-0.000104
 14,0.00005777,-0.00025571,0.00028353,0.00072439,0.10209458,-0.08697629
 ,0.27256316\\0.00001794,0.00000320,0.00000291,-0.00001812,0.00000085,-
 0.00001047,-0.00000368,-0.00000341,-0.00000031,0.00000288,0.00000318,0
 .00000432,-0.00000014,-0.00000162,0.00000227,-0.00000281,-0.00000268,0
 .00000209,-0.00000077,-0.00000133,0.00000229,-0.00000117,-0.00000150,0
 .00000410,-0.00000221,-0.00000127,-0.00000154,0.00000014,-0.00000117,0
 .00000041,-0.00000154,-0.00000230,-0.00000057,0.00000088,-0.00000114,0
 .00000229,-0.00000067,-0.00000244,0.00000120,-0.00000033,-0.00000018,0
 .00000301,0.00000062,0.00000081,0.00000365,0.00000135,0.00000156,0.000
 00334,0.00000140,0.00000380,0.00000337,-0.00000130,-0.00000103,0.00000
 182,-0.00000073,-0.00000092,0.00000310,0.00000087,0.00000077,0.0000043
 7,0.00000211,0.00000235,0.00000394,0.00000154,0.00000195,0.00000226,-0
 .00000104,-0.00000189,-0.00000018,0.00000096,0.00000025,-0.00000045,0.
 00000024,0.00000072,0.00000174,-0.00000017,0.00000012,0.00000129,0.000
 00453,-0.00000002,-0.00000268,-0.00000103,-0.00000143,-0.00000329,-0.0
 0000167,-0.00000048,-0.00000138,-0.00000028,-0.00000050,-0.00000276,0.
 00000062,0.00000045,-0.00000130,0.00000054,0.00000216,-0.00000048,-0.0
 0000173,-0.00000079,-0.00000112,-0.00000193,-0.00000220,-0.00000252,-0
 .00000048,-0.00000047,-0.00000226,0.00000129,0.00000153,-0.00000144,0.
 00000092,0.00000155,-0.00000113,0.00000036,-0.00000115,0.00000081,0.00
 000370,0.00000354,-0.00000237,-0.00000043,0.00000166,-0.00000147,0.000
 00022,0.00000042,-0.00000335,-0.00000026,-0.00000117,-0.00000161,-0.00
 000112,-0.00000133,-0.00000195,0.00000261,0.00000270,-0.00000223,0.000
 00157,0.00000216,-0.00000211,0.00000038,0.00000048,-0.00000197,-0.0000
 0115,-0.00000141,-0.00000199,-0.00000291,-0.00000237,-0.00000164\\\@
 The archive entry for this job was punched.


 NO MATTER HOW THIN YOU SLICE IT, IT'S STILL BALONEY

                                   -- ALFRED E. SMITH
 Job cpu time:       1 days 17 hours 15 minutes 34.5 seconds.
 Elapsed time:       0 days  3 hours 28 minutes  1.1 seconds.
 File lengths (MBytes):  RWF=   3295 Int=      0 D2E=      0 Chk=     86 Scr=      1
 Normal termination of Gaussian 16 at Fri Jun  3 22:58:27 2022.
