 Entering Gaussian System, Link 0=g16
 Initial command:
 /apps/gaussian/16/A.03/g16/l1.exe "/beegfs/scratch/user/q/tla25/Gau-12769.inp" -scrdir="/beegfs/scratch/user/q/tla25/"
 Entering Link 1 = /apps/gaussian/16/A.03/g16/l1.exe PID=     12770.
  
 Copyright (c) 1988,1990,1992,1993,1995,1998,2003,2009,2016,
            Gaussian, Inc.  All Rights Reserved.
  
 This is part of the Gaussian(R) 16 program.  It is based on
 the Gaussian(R) 09 system (copyright 2009, Gaussian, Inc.),
 the Gaussian(R) 03 system (copyright 2003, Gaussian, Inc.),
 the Gaussian(R) 98 system (copyright 1998, Gaussian, Inc.),
 the Gaussian(R) 94 system (copyright 1995, Gaussian, Inc.),
 the Gaussian 92(TM) system (copyright 1992, Gaussian, Inc.),
 the Gaussian 90(TM) system (copyright 1990, Gaussian, Inc.),
 the Gaussian 88(TM) system (copyright 1988, Gaussian, Inc.),
 the Gaussian 86(TM) system (copyright 1986, Carnegie Mellon
 University), and the Gaussian 82(TM) system (copyright 1983,
 Carnegie Mellon University). Gaussian is a federally registered
 trademark of Gaussian, Inc.
  
 This software contains proprietary and confidential information,
 including trade secrets, belonging to Gaussian, Inc.
  
 This software is provided under written license and may be
 used, copied, transmitted, or stored only in accord with that
 written license.
  
 The following legend is applicable only to US Government
 contracts under FAR:
  
                    RESTRICTED RIGHTS LEGEND
  
 Use, reproduction and disclosure by the US Government is
 subject to restrictions as set forth in subparagraphs (a)
 and (c) of the Commercial Computer Software - Restricted
 Rights clause in FAR 52.227-19.
  
 Gaussian, Inc.
 340 Quinnipiac St., Bldg. 40, Wallingford CT 06492
  
  
 ---------------------------------------------------------------
 Warning -- This program may not be used in any manner that
 competes with the business of Gaussian, Inc. or will provide
 assistance to any competitor of Gaussian, Inc.  The licensee
 of this program is prohibited from giving any competitor of
 Gaussian, Inc. access to this program.  By using this program,
 the user acknowledges that Gaussian, Inc. is engaged in the
 business of creating and licensing software in the field of
 computational chemistry and represents and warrants to the
 licensee that it is not a competitor of Gaussian, Inc. and that
 it will not use this program in any manner prohibited above.
 ---------------------------------------------------------------
  

 Cite this work as:
 Gaussian 16, Revision A.03,
 M. J. Frisch, G. W. Trucks, H. B. Schlegel, G. E. Scuseria, 
 M. A. Robb, J. R. Cheeseman, G. Scalmani, V. Barone, 
 G. A. Petersson, H. Nakatsuji, X. Li, M. Caricato, A. V. Marenich, 
 J. Bloino, B. G. Janesko, R. Gomperts, B. Mennucci, H. P. Hratchian, 
 J. V. Ortiz, A. F. Izmaylov, J. L. Sonnenberg, D. Williams-Young, 
 F. Ding, F. Lipparini, F. Egidi, J. Goings, B. Peng, A. Petrone, 
 T. Henderson, D. Ranasinghe, V. G. Zakrzewski, J. Gao, N. Rega, 
 G. Zheng, W. Liang, M. Hada, M. Ehara, K. Toyota, R. Fukuda, 
 J. Hasegawa, M. Ishida, T. Nakajima, Y. Honda, O. Kitao, H. Nakai, 
 T. Vreven, K. Throssell, J. A. Montgomery, Jr., J. E. Peralta, 
 F. Ogliaro, M. J. Bearpark, J. J. Heyd, E. N. Brothers, K. N. Kudin, 
 V. N. Staroverov, T. A. Keith, R. Kobayashi, J. Normand, 
 K. Raghavachari, A. P. Rendell, J. C. Burant, S. S. Iyengar, 
 J. Tomasi, M. Cossi, J. M. Millam, M. Klene, C. Adamo, R. Cammi, 
 J. W. Ochterski, R. L. Martin, K. Morokuma, O. Farkas, 
 J. B. Foresman, and D. J. Fox, Gaussian, Inc., Wallingford CT, 2016.
 
 ******************************************
 Gaussian 16:  ES64L-G16RevA.03 25-Dec-2016
                27-Feb-2021 
 ******************************************
 %nprocshared=16
 Will use up to   16 processors via shared memory.
 %mem=48GB
 ----------------------------------------------------------------------
 # wB97XD def2tzvp, opt=(ts, noeigen, calcfc, maxcycles=70, maxstep=1),
  freq=noraman, scrf=(iefpcm, solvent=water)
 ----------------------------------------------------------------------
 1/5=1,6=70,8=1,10=4,11=1,18=20,26=3,38=1/1,3;
 2/9=110,12=2,17=6,18=5,40=1/2;
 3/5=44,7=101,11=2,25=1,30=1,70=2201,71=2,72=1,74=-58,140=1/1,2,3;
 4//1;
 5/5=2,38=5,53=1/2;
 8/6=4,10=90,11=11/1;
 11/6=1,8=1,9=11,15=111,16=1/1,2,10;
 10/6=1,13=1/2;
 6/7=2,8=2,9=2,10=2,28=1/1;
 7/10=1,18=20,25=1/1,2,3,16;
 1/5=1,6=70,8=1,10=4,11=1,18=20,26=3/3(2);
 2/9=110/2;
 99//99;
 2/9=110/2;
 3/5=44,7=101,11=2,25=1,30=1,70=2205,71=1,72=1,74=-58/1,2,3;
 4/5=5,16=3,69=1/1;
 5/5=2,38=5,53=1/2;
 7//1,2,3,16;
 1/5=1,6=70,8=1,11=1,18=20,26=3/3(-5);
 2/9=110/2;
 6/7=2,8=2,9=2,10=2,19=2,28=1/1;
 99/9=1/99;
 ------------------------
 0_iteration/TS-930-0.out
 ------------------------
 Symbolic Z-matrix:
 Charge =  0 Multiplicity = 1
 C                     0.91152   0.61674   0.81021 
 C                     2.15197  -0.0416    0.53534 
 O                     3.18158   0.33022   1.11181 
 C                    -0.36203   0.42694   0.29249 
 C                     0.61146   1.76013  -1.9339 
 H                     0.40124   2.39707  -2.79138 
 H                     1.12467   2.3351   -1.16518 
 H                     1.24718   0.93505  -2.24408 
 N                    -0.63094   1.23722  -1.37627 
 H                    -1.29688   1.9834   -1.20695 
 H                    -1.06928   0.564    -1.99567 
 Cl                   -1.62751   1.28971   1.19168 
 Br                   -1.0066   -1.36378  -0.15072 
 H                     1.00398   1.46397   1.47786 
 C                     2.27168  -1.20359  -0.42956 
 H                     1.61312  -1.13174  -1.29255 
 H                     3.30588  -1.26192  -0.76407 
 H                     2.02523  -2.13178   0.09053 
 
 Add virtual bond connecting atoms N9         and C4         Dist= 3.54D+00.

 GradGradGradGradGradGradGradGradGradGradGradGradGradGradGradGradGradGrad
 Berny optimization.
 Initialization pass.
                           ----------------------------
                           !    Initial Parameters    !
                           ! (Angstroms and Degrees)  !
 --------------------------                            --------------------------
 ! Name  Definition              Value          Derivative Info.                !
 --------------------------------------------------------------------------------
 ! R1    R(1,2)                  1.431          calculate D2E/DX2 analytically  !
 ! R2    R(1,4)                  1.3878         calculate D2E/DX2 analytically  !
 ! R3    R(1,14)                 1.0826         calculate D2E/DX2 analytically  !
 ! R4    R(2,3)                  1.2372         calculate D2E/DX2 analytically  !
 ! R5    R(2,15)                 1.5151         calculate D2E/DX2 analytically  !
 ! R6    R(4,9)                  1.8745         calculate D2E/DX2 analytically  !
 ! R7    R(4,12)                 1.7761         calculate D2E/DX2 analytically  !
 ! R8    R(4,13)                 1.9541         calculate D2E/DX2 analytically  !
 ! R9    R(5,6)                  1.0886         calculate D2E/DX2 analytically  !
 ! R10   R(5,7)                  1.0885         calculate D2E/DX2 analytically  !
 ! R11   R(5,8)                  1.0868         calculate D2E/DX2 analytically  !
 ! R12   R(5,9)                  1.4587         calculate D2E/DX2 analytically  !
 ! R13   R(9,10)                 1.0144         calculate D2E/DX2 analytically  !
 ! R14   R(9,11)                 1.0144         calculate D2E/DX2 analytically  !
 ! R15   R(15,16)                1.0879         calculate D2E/DX2 analytically  !
 ! R16   R(15,17)                1.0885         calculate D2E/DX2 analytically  !
 ! R17   R(15,18)                1.0921         calculate D2E/DX2 analytically  !
 ! A1    A(2,1,4)              131.3698         calculate D2E/DX2 analytically  !
 ! A2    A(2,1,14)             113.8569         calculate D2E/DX2 analytically  !
 ! A3    A(4,1,14)             114.5479         calculate D2E/DX2 analytically  !
 ! A4    A(1,2,3)              119.5802         calculate D2E/DX2 analytically  !
 ! A5    A(1,2,15)             122.933          calculate D2E/DX2 analytically  !
 ! A6    A(3,2,15)             117.4822         calculate D2E/DX2 analytically  !
 ! A7    A(1,4,9)              113.8687         calculate D2E/DX2 analytically  !
 ! A8    A(1,4,12)             113.4881         calculate D2E/DX2 analytically  !
 ! A9    A(1,4,13)             120.8395         calculate D2E/DX2 analytically  !
 ! A10   A(9,4,12)              97.9621         calculate D2E/DX2 analytically  !
 ! A11   A(9,4,13)              98.4466         calculate D2E/DX2 analytically  !
 ! A12   A(12,4,13)            108.9633         calculate D2E/DX2 analytically  !
 ! A13   A(6,5,7)              109.7698         calculate D2E/DX2 analytically  !
 ! A14   A(6,5,8)              109.4105         calculate D2E/DX2 analytically  !
 ! A15   A(6,5,9)              110.2648         calculate D2E/DX2 analytically  !
 ! A16   A(7,5,8)              109.0733         calculate D2E/DX2 analytically  !
 ! A17   A(7,5,9)              108.7194         calculate D2E/DX2 analytically  !
 ! A18   A(8,5,9)              109.5821         calculate D2E/DX2 analytically  !
 ! A19   A(4,9,5)              111.9062         calculate D2E/DX2 analytically  !
 ! A20   A(4,9,10)             105.2817         calculate D2E/DX2 analytically  !
 ! A21   A(4,9,11)             108.5846         calculate D2E/DX2 analytically  !
 ! A22   A(5,9,10)             111.0548         calculate D2E/DX2 analytically  !
 ! A23   A(5,9,11)             111.8707         calculate D2E/DX2 analytically  !
 ! A24   A(10,9,11)            107.8444         calculate D2E/DX2 analytically  !
 ! A25   A(2,15,16)            113.9972         calculate D2E/DX2 analytically  !
 ! A26   A(2,15,17)            108.1722         calculate D2E/DX2 analytically  !
 ! A27   A(2,15,18)            109.3111         calculate D2E/DX2 analytically  !
 ! A28   A(16,15,17)           109.5661         calculate D2E/DX2 analytically  !
 ! A29   A(16,15,18)           107.2942         calculate D2E/DX2 analytically  !
 ! A30   A(17,15,18)           108.3728         calculate D2E/DX2 analytically  !
 ! D1    D(4,1,2,3)            178.3166         calculate D2E/DX2 analytically  !
 ! D2    D(4,1,2,15)            -2.4881         calculate D2E/DX2 analytically  !
 ! D3    D(14,1,2,3)             4.1665         calculate D2E/DX2 analytically  !
 ! D4    D(14,1,2,15)         -176.6382         calculate D2E/DX2 analytically  !
 ! D5    D(2,1,4,9)            -80.3357         calculate D2E/DX2 analytically  !
 ! D6    D(2,1,4,12)           168.7208         calculate D2E/DX2 analytically  !
 ! D7    D(2,1,4,13)            36.4892         calculate D2E/DX2 analytically  !
 ! D8    D(14,1,4,9)            93.7825         calculate D2E/DX2 analytically  !
 ! D9    D(14,1,4,12)          -17.161          calculate D2E/DX2 analytically  !
 ! D10   D(14,1,4,13)         -149.3926         calculate D2E/DX2 analytically  !
 ! D11   D(1,2,15,16)           35.5494         calculate D2E/DX2 analytically  !
 ! D12   D(1,2,15,17)          157.6865         calculate D2E/DX2 analytically  !
 ! D13   D(1,2,15,18)          -84.5033         calculate D2E/DX2 analytically  !
 ! D14   D(3,2,15,16)         -145.2395         calculate D2E/DX2 analytically  !
 ! D15   D(3,2,15,17)          -23.1024         calculate D2E/DX2 analytically  !
 ! D16   D(3,2,15,18)           94.7078         calculate D2E/DX2 analytically  !
 ! D17   D(1,4,9,5)              8.5752         calculate D2E/DX2 analytically  !
 ! D18   D(1,4,9,10)          -112.1741         calculate D2E/DX2 analytically  !
 ! D19   D(1,4,9,11)           132.548          calculate D2E/DX2 analytically  !
 ! D20   D(12,4,9,5)           128.7053         calculate D2E/DX2 analytically  !
 ! D21   D(12,4,9,10)            7.956          calculate D2E/DX2 analytically  !
 ! D22   D(12,4,9,11)         -107.3219         calculate D2E/DX2 analytically  !
 ! D23   D(13,4,9,5)          -120.6548         calculate D2E/DX2 analytically  !
 ! D24   D(13,4,9,10)          118.5959         calculate D2E/DX2 analytically  !
 ! D25   D(13,4,9,11)            3.318          calculate D2E/DX2 analytically  !
 ! D26   D(6,5,9,4)           -168.4057         calculate D2E/DX2 analytically  !
 ! D27   D(6,5,9,10)           -51.0702         calculate D2E/DX2 analytically  !
 ! D28   D(6,5,9,11)            69.4834         calculate D2E/DX2 analytically  !
 ! D29   D(7,5,9,4)            -48.0205         calculate D2E/DX2 analytically  !
 ! D30   D(7,5,9,10)            69.3149         calculate D2E/DX2 analytically  !
 ! D31   D(7,5,9,11)          -170.1315         calculate D2E/DX2 analytically  !
 ! D32   D(8,5,9,4)             71.1068         calculate D2E/DX2 analytically  !
 ! D33   D(8,5,9,10)          -171.5577         calculate D2E/DX2 analytically  !
 ! D34   D(8,5,9,11)           -51.0041         calculate D2E/DX2 analytically  !
 --------------------------------------------------------------------------------
 Trust Radius=1.00D-02 FncErr=1.00D-07 GrdErr=1.00D-06 EigMax=2.50D+02 EigMin=1.00D-04
 Number of steps in this run=     70 maximum allowed number of steps=    108.
 Search for a saddle point of order  1.
 GradGradGradGradGradGradGradGradGradGradGradGradGradGradGradGradGradGrad

                          Input orientation:                          
 ---------------------------------------------------------------------
 Center     Atomic      Atomic             Coordinates (Angstroms)
 Number     Number       Type             X           Y           Z
 ---------------------------------------------------------------------
      1          6           0        0.911520    0.616740    0.810210
      2          6           0        2.151970   -0.041600    0.535340
      3          8           0        3.181580    0.330220    1.111810
      4          6           0       -0.362030    0.426940    0.292490
      5          6           0        0.611460    1.760130   -1.933900
      6          1           0        0.401240    2.397070   -2.791380
      7          1           0        1.124670    2.335100   -1.165180
      8          1           0        1.247180    0.935050   -2.244080
      9          7           0       -0.630940    1.237220   -1.376270
     10          1           0       -1.296880    1.983400   -1.206950
     11          1           0       -1.069280    0.564000   -1.995670
     12         17           0       -1.627510    1.289710    1.191680
     13         35           0       -1.006600   -1.363780   -0.150720
     14          1           0        1.003980    1.463970    1.477860
     15          6           0        2.271680   -1.203590   -0.429560
     16          1           0        1.613120   -1.131740   -1.292550
     17          1           0        3.305880   -1.261920   -0.764070
     18          1           0        2.025230   -2.131780    0.090530
 ---------------------------------------------------------------------
                    Distance matrix (angstroms):
                    1          2          3          4          5
     1  C    0.000000
     2  C    1.430972   0.000000
     3  O    2.307862   1.237200   0.000000
     4  C    1.387800   2.568794   3.638380   0.000000
     5  C    2.987895   3.422944   4.233971   2.771622   0.000000
     6  H    4.049866   4.480986   5.218913   3.738214   1.088649
     7  H    2.626854   3.097711   3.665393   2.824208   1.088534
     8  H    3.089122   3.081828   3.920423   3.046624   1.086788
     9  N    2.746793   3.610294   4.642036   1.874467   1.458747
    10  H    3.288423   4.362427   5.307189   2.354747   2.054280
    11  H    3.435013   4.141161   5.270759   2.398888   2.063839
    12  Cl   2.654257   4.060497   4.904523   1.776050   3.873439
    13  Br   2.919765   3.492192   4.690892   1.954120   3.944194
    14  H    1.082638   2.114939   2.482201   2.084830   3.447012
    15  C    2.588565   1.515118   2.357183   3.180631   3.715240
    16  H    2.823300   2.195438   3.221543   2.973727   3.126910
    17  H    3.426468   2.123477   2.463592   4.173983   4.214402
    18  H    3.051664   2.140741   2.905444   3.505260   4.609124
                    6          7          8          9         10
     6  H    0.000000
     7  H    1.780932   0.000000
     8  H    1.775572   1.771771   0.000000
     9  N    2.100758   2.081362   2.090870   0.000000
    10  H    2.359058   2.447313   2.940564   1.014362   0.000000
    11  H    2.481074   2.939375   2.359104   1.014408   1.639688
    12  Cl   4.605088   3.771223   4.493782   2.755045   2.518719
    13  Br   4.806151   4.387842   3.840091   2.899706   3.521860
    14  H    4.411392   2.785515   3.767193   3.297035   3.573789
    15  C    4.694837   3.791978   2.985944   3.908838   4.847253
    16  H    4.020901   3.503396   2.304548   3.264167   4.263745
    17  H    5.092654   4.225768   3.354900   4.703088   5.649216
    18  H    5.608318   4.726609   3.932075   4.533972   5.445601
                   11         12         13         14         15
    11  H    0.000000
    12  Cl   3.316244   0.000000
    13  Br   2.669102   3.037857   0.000000
    14  H    4.144124   2.652735   3.832868   0.000000
    15  C    4.091343   4.903942   3.294015   3.515849   0.000000
    16  H    3.250413   4.747263   2.867150   3.844988   1.087941
    17  H    4.898249   5.888473   4.357070   4.213724   1.088517
    18  H    4.603852   5.124611   3.136880   3.987111   1.092139
                   16         17         18
    16  H    0.000000
    17  H    1.778110   0.000000
    18  H    1.755798   1.768350   0.000000
 Stoichiometry    C5H9BrClNO
 Framework group  C1[X(C5H9BrClNO)]
 Deg. of freedom    48
 Full point group                 C1      NOp   1
 Largest Abelian subgroup         C1      NOp   1
 Largest concise Abelian subgroup C1      NOp   1
                         Standard orientation:                         
 ---------------------------------------------------------------------
 Center     Atomic      Atomic             Coordinates (Angstroms)
 Number     Number       Type             X           Y           Z
 ---------------------------------------------------------------------
      1          6           0       -0.911517    0.616744   -0.810211
      2          6           0       -2.151969   -0.041592   -0.535341
      3          8           0       -3.181578    0.330232   -1.111811
      4          6           0        0.362033    0.426939   -0.292491
      5          6           0       -0.611453    1.760133    1.933899
      6          1           0       -0.401230    2.397072    2.791379
      7          1           0       -1.124661    2.335104    1.165179
      8          1           0       -1.247176    0.935055    2.244079
      9          7           0        0.630946    1.237218    1.376269
     10          1           0        1.296888    1.983396    1.206949
     11          1           0        1.069283    0.563997    1.995669
     12         17           0        1.627516    1.289705   -1.191681
     13         35           0        1.006596   -1.363783    0.150719
     14          1           0       -1.003974    1.463974   -1.477861
     15          6           0       -2.271683   -1.203582    0.429559
     16          1           0       -1.613123   -1.131734    1.292549
     17          1           0       -3.305883   -1.261908    0.764069
     18          1           0       -2.025236   -2.131772   -0.090531
 ---------------------------------------------------------------------
 Rotational constants (GHZ):           1.0233592           0.7459724           0.6219956
 Standard basis: def2TZVP (5D, 7F)
 There are   403 symmetry adapted cartesian basis functions of A   symmetry.
 There are   356 symmetry adapted basis functions of A   symmetry.
   356 basis functions,   612 primitive gaussians,   403 cartesian basis functions
    53 alpha electrons       53 beta electrons
       nuclear repulsion energy       849.5315473705 Hartrees.
 NAtoms=   18 NActive=   18 NUniq=   18 SFac= 1.00D+00 NAtFMM=   60 NAOKFM=F Big=F
 Integral buffers will be    131072 words long.
 Raffenetti 2 integral format.
 Two-electron integral symmetry is turned on.
 Nuclear repulsion after empirical dispersion term =      849.5191955867 Hartrees.
 Force inversion solution in PCM.
 ------------------------------------------------------------------------------
 Polarizable Continuum Model (PCM)
 =================================
 Model                : PCM.
 Atomic radii         : UFF (Universal Force Field).
 Polarization charges : Total charges.
 Charge compensation  : None.
 Solution method      : Matrix inversion.
 Cavity type          : Scaled VdW (van der Waals Surface) (Alpha=1.100).
 Cavity algorithm     : GePol (No added spheres)
                        Default sphere list used, NSphG=   18.
                        Lebedev-Laikov grids with approx.  5.0 points / Ang**2.
                        Smoothing algorithm: York/Karplus (Gamma=1.0000).
                        Polarization charges: spherical gaussians, with
                                              point-specific exponents (IZeta= 3).
                        Self-potential: point-specific (ISelfS= 7).
                        Self-field    : sphere-specific E.n sum rule (ISelfD= 2).
 1st derivatives      : Analytical E(r).r(x)/FMM algorithm (CHGder, D1EAlg=3).
                        Cavity 1st derivative terms included.
 2nd derivatives      : Analytical E(r).r(xy)/FMM algorithm (CHGder, D2EAlg=3).
                        Cavity 2nd derivative terms included.
 Solvent              : Water, Eps=  78.355300 Eps(inf)=   1.777849
 ------------------------------------------------------------------------------
 Spheres list:
 ISph  on   Nord     Re0    Alpha      Xe            Ye            Ze
    1   C      1    1.9255  1.100     -0.911517      0.616744     -0.810211
    2   C      2    1.9255  1.100     -2.151969     -0.041592     -0.535341
    3   O      3    1.7500  1.100     -3.181578      0.330232     -1.111811
    4   C      4    1.9255  1.100      0.362033      0.426939     -0.292491
    5   C      5    1.9255  1.100     -0.611453      1.760133      1.933899
    6   H      6    1.4430  1.100     -0.401230      2.397072      2.791379
    7   H      7    1.4430  1.100     -1.124661      2.335104      1.165179
    8   H      8    1.4430  1.100     -1.247176      0.935055      2.244079
    9   N      9    1.8300  1.100      0.630946      1.237218      1.376269
   10   H     10    1.4430  1.100      1.296888      1.983396      1.206949
   11   H     11    1.4430  1.100      1.069283      0.563997      1.995669
   12  Cl     12    1.9735  1.100      1.627516      1.289705     -1.191681
   13  Br     13    2.0945  1.100      1.006596     -1.363783      0.150719
   14   H     14    1.4430  1.100     -1.003974      1.463974     -1.477861
   15   C     15    1.9255  1.100     -2.271683     -1.203582      0.429559
   16   H     16    1.4430  1.100     -1.613123     -1.131734      1.292549
   17   H     17    1.4430  1.100     -3.305883     -1.261908      0.764069
   18   H     18    1.4430  1.100     -2.025236     -2.131772     -0.090531
 ------------------------------------------------------------------------------
 One-electron integrals computed using PRISM.
   1 Symmetry operations used in ECPInt.
 ECPInt:  NShTT=   10153 NPrTT=   34213 LenC2=    9787 LenP2D=   24864.
 LDataN:  DoStor=T MaxTD1= 6 Len=  172
 NBasis=   356 RedAO= T EigKep=  8.90D-05  NBF=   356
 NBsUse=   356 1.00D-06 EigRej= -1.00D+00 NBFU=   356
 ExpMin= 9.52D-02 ExpMax= 5.65D+05 ExpMxC= 5.46D+03 IAcc=3 IRadAn=         5 AccDes= 0.00D+00
 Harris functional with IExCor= 4639 and IRadAn=       5 diagonalized for initial guess.
 HarFok:  IExCor= 4639 AccDes= 0.00D+00 IRadAn=         5 IDoV= 1 UseB2=F ITyADJ=14
 ICtDFT=  3500011 ScaDFX=  1.000000  1.000000  1.000000  1.000000
 FoFCou: FMM=F IPFlag=           0 FMFlag=      100000 FMFlg1=           0
         NFxFlg=           0 DoJE=T BraDBF=F KetDBF=T FulRan=T
         wScrn=  0.000000 ICntrl=       500 IOpCl=  0 I1Cent=   200000004 NGrid=           0
         NMat0=    1 NMatS0=      1 NMatT0=    0 NMatD0=    1 NMtDS0=    0 NMtDT0=    0
 Petite list used in FoFCou.
 Requested convergence on RMS density matrix=1.00D-08 within 128 cycles.
 Requested convergence on MAX density matrix=1.00D-06.
 Requested convergence on             energy=1.00D-06.
 No special actions if energy rises.
 Inv3:  Mode=1 IEnd=     7124043.
 Iteration    1 A*A^-1 deviation from unit magnitude is 3.00D-15 for   1524.
 Iteration    1 A*A^-1 deviation from orthogonality  is 2.55D-15 for   1526   1414.
 Iteration    1 A^-1*A deviation from unit magnitude is 3.00D-15 for   1524.
 Iteration    1 A^-1*A deviation from orthogonality  is 1.05D-14 for   1519   1362.
 Error on total polarization charges =  0.01371
 SCF Done:  E(RwB97XD) =  -3360.31584687     A.U. after   15 cycles
            NFock= 15  Conv=0.44D-08     -V/T= 2.0017
 DoSCS=F DFT=T ScalE2(SS,OS)=  1.000000  1.000000
 Range of M.O.s used for correlation:     1   356
 NBasis=   356 NAE=    53 NBE=    53 NFC=     0 NFV=     0
 NROrb=    356 NOA=    53 NOB=    53 NVA=   303 NVB=   303

 **** Warning!!: The largest alpha MO coefficient is  0.20558730D+02

   1 Symmetry operations used in ECPInt.
 ECPInt:  NShTT=   10153 NPrTT=   34213 LenC2=    9787 LenP2D=   24864.
 LDataN:  DoStor=T MaxTD1= 7 Len=  274
 Symmetrizing basis deriv contribution to polar:
 IMax=3 JMax=2 DiffMx= 0.00D+00
 G2DrvN: will do    19 centers at a time, making    1 passes.
 Calling FoFCou, ICntrl=  3107 FMM=F I1Cent=   0 AccDes= 0.00D+00.
 NEqPCM:  Using equilibrium solvation (IEInf=0, Eps=  78.3553, EpsInf=   1.7778)
 G2PCM: DoFxE=T DoFxN=T DoGrad=T DoDP/DQ/DG/TGxP=FFFF NFrqRd=   0 IEInf=0 SqF1=F DoCFld=F IF1Alg=4.
 End of G2Drv F.D. properties file   721 does not exist.
 End of G2Drv F.D. properties file   722 does not exist.
 End of G2Drv F.D. properties file   788 does not exist.
          IDoAtm=111111111111111111
 NEqPCM:  Using equilibrium solvation (IEInf=0, Eps=  78.3553, EpsInf=   1.7778)
          Differentiating once with respect to nuclear coordinates.
 Keep R1 ints in memory in canonical form, NReq=4071137022.
          There are    57 degrees of freedom in the 1st order CPHF.  IDoFFX=6 NUNeed=     0.
     51 vectors produced by pass  0 Test12= 2.82D-14 1.75D-09 XBig12= 1.09D-01 1.81D-01.
 AX will form    51 AO Fock derivatives at one time.
     51 vectors produced by pass  1 Test12= 2.82D-14 1.75D-09 XBig12= 2.93D-02 3.79D-02.
     51 vectors produced by pass  2 Test12= 2.82D-14 1.75D-09 XBig12= 6.75D-04 8.34D-03.
     51 vectors produced by pass  3 Test12= 2.82D-14 1.75D-09 XBig12= 1.26D-05 1.12D-03.
     51 vectors produced by pass  4 Test12= 2.82D-14 1.75D-09 XBig12= 1.43D-07 8.87D-05.
     51 vectors produced by pass  5 Test12= 2.82D-14 1.75D-09 XBig12= 1.27D-09 4.36D-06.
     51 vectors produced by pass  6 Test12= 2.82D-14 1.75D-09 XBig12= 9.60D-12 2.61D-07.
     21 vectors produced by pass  7 Test12= 2.82D-14 1.75D-09 XBig12= 6.83D-14 2.51D-08.
      1 vectors produced by pass  8 Test12= 2.82D-14 1.75D-09 XBig12= 4.77D-16 1.93D-09.
 InvSVY:  IOpt=1 It=  1 EMax= 7.77D-16
 Solved reduced A of dimension   379 with    57 vectors.
 End of Minotr F.D. properties file   721 does not exist.
 End of Minotr F.D. properties file   722 does not exist.
 End of Minotr F.D. properties file   788 does not exist.

 **********************************************************************

            Population analysis using the SCF density.

 **********************************************************************

 Orbital symmetries:
       Occupied  (A) (A) (A) (A) (A) (A) (A) (A) (A) (A) (A) (A)
                 (A) (A) (A) (A) (A) (A) (A) (A) (A) (A) (A) (A)
                 (A) (A) (A) (A) (A) (A) (A) (A) (A) (A) (A) (A)
                 (A) (A) (A) (A) (A) (A) (A) (A) (A) (A) (A) (A)
                 (A) (A) (A) (A) (A)
       Virtual   (A) (A) (A) (A) (A) (A) (A) (A) (A) (A) (A) (A)
                 (A) (A) (A) (A) (A) (A) (A) (A) (A) (A) (A) (A)
                 (A) (A) (A) (A) (A) (A) (A) (A) (A) (A) (A) (A)
                 (A) (A) (A) (A) (A) (A) (A) (A) (A) (A) (A) (A)
                 (A) (A) (A) (A) (A) (A) (A) (A) (A) (A) (A) (A)
                 (A) (A) (A) (A) (A) (A) (A) (A) (A) (A) (A) (A)
                 (A) (A) (A) (A) (A) (A) (A) (A) (A) (A) (A) (A)
                 (A) (A) (A) (A) (A) (A) (A) (A) (A) (A) (A) (A)
                 (A) (A) (A) (A) (A) (A) (A) (A) (A) (A) (A) (A)
                 (A) (A) (A) (A) (A) (A) (A) (A) (A) (A) (A) (A)
                 (A) (A) (A) (A) (A) (A) (A) (A) (A) (A) (A) (A)
                 (A) (A) (A) (A) (A) (A) (A) (A) (A) (A) (A) (A)
                 (A) (A) (A) (A) (A) (A) (A) (A) (A) (A) (A) (A)
                 (A) (A) (A) (A) (A) (A) (A) (A) (A) (A) (A) (A)
                 (A) (A) (A) (A) (A) (A) (A) (A) (A) (A) (A) (A)
                 (A) (A) (A) (A) (A) (A) (A) (A) (A) (A) (A) (A)
                 (A) (A) (A) (A) (A) (A) (A) (A) (A) (A) (A) (A)
                 (A) (A) (A) (A) (A) (A) (A) (A) (A) (A) (A) (A)
                 (A) (A) (A) (A) (A) (A) (A) (A) (A) (A) (A) (A)
                 (A) (A) (A) (A) (A) (A) (A) (A) (A) (A) (A) (A)
                 (A) (A) (A) (A) (A) (A) (A) (A) (A) (A) (A) (A)
                 (A) (A) (A) (A) (A) (A) (A) (A) (A) (A) (A) (A)
                 (A) (A) (A) (A) (A) (A) (A) (A) (A) (A) (A) (A)
                 (A) (A) (A) (A) (A) (A) (A) (A) (A) (A) (A) (A)
                 (A) (A) (A) (A) (A) (A) (A) (A) (A) (A) (A) (A)
                 (A) (A) (A)
 The electronic state is 1-A.
 Alpha  occ. eigenvalues -- -483.14205-101.71284 -62.69063 -56.48190 -56.47817
 Alpha  occ. eigenvalues --  -56.47806 -19.20552 -14.50959 -10.45241 -10.35916
 Alpha  occ. eigenvalues --  -10.32545 -10.27364 -10.26201  -9.59873  -8.83177
 Alpha  occ. eigenvalues --   -7.34544  -7.33634  -7.33607  -6.65366  -6.64180
 Alpha  occ. eigenvalues --   -6.64145  -2.75742  -2.75411  -2.75382  -2.74425
 Alpha  occ. eigenvalues --   -2.74424  -1.11333  -1.06570  -0.99215  -0.90136
 Alpha  occ. eigenvalues --   -0.85711  -0.81599  -0.80085  -0.70322  -0.65193
 Alpha  occ. eigenvalues --   -0.61519  -0.58977  -0.57184  -0.55501  -0.54586
 Alpha  occ. eigenvalues --   -0.51600  -0.50506  -0.48977  -0.48617  -0.47795
 Alpha  occ. eigenvalues --   -0.44730  -0.43217  -0.41876  -0.40747  -0.38360
 Alpha  occ. eigenvalues --   -0.37649  -0.32473  -0.28953
 Alpha virt. eigenvalues --    0.02724   0.03970   0.07551   0.10249   0.13430
 Alpha virt. eigenvalues --    0.13744   0.15505   0.16576   0.17345   0.18727
 Alpha virt. eigenvalues --    0.19723   0.20989   0.21366   0.22449   0.22535
 Alpha virt. eigenvalues --    0.23843   0.25326   0.26942   0.28158   0.29570
 Alpha virt. eigenvalues --    0.30264   0.31105   0.31585   0.32074   0.33786
 Alpha virt. eigenvalues --    0.34336   0.35904   0.36846   0.38298   0.38688
 Alpha virt. eigenvalues --    0.39205   0.40362   0.40739   0.42085   0.43621
 Alpha virt. eigenvalues --    0.44861   0.45518   0.45956   0.47104   0.48902
 Alpha virt. eigenvalues --    0.49152   0.49744   0.50828   0.51975   0.52225
 Alpha virt. eigenvalues --    0.52270   0.52973   0.53769   0.54363   0.56029
 Alpha virt. eigenvalues --    0.56655   0.57130   0.58618   0.59573   0.60300
 Alpha virt. eigenvalues --    0.61325   0.62887   0.64473   0.65450   0.66978
 Alpha virt. eigenvalues --    0.67995   0.69671   0.71905   0.73994   0.75701
 Alpha virt. eigenvalues --    0.76898   0.79145   0.79860   0.81163   0.82919
 Alpha virt. eigenvalues --    0.85936   0.88345   0.92460   0.93986   0.94709
 Alpha virt. eigenvalues --    0.97220   0.98066   0.99914   1.01965   1.02847
 Alpha virt. eigenvalues --    1.05864   1.07646   1.08394   1.09660   1.10906
 Alpha virt. eigenvalues --    1.13277   1.13771   1.15295   1.16771   1.19763
 Alpha virt. eigenvalues --    1.21595   1.23036   1.26218   1.29495   1.33693
 Alpha virt. eigenvalues --    1.34482   1.35850   1.36790   1.40483   1.42119
 Alpha virt. eigenvalues --    1.43606   1.45764   1.47855   1.50260   1.51994
 Alpha virt. eigenvalues --    1.53065   1.55061   1.56041   1.57396   1.59068
 Alpha virt. eigenvalues --    1.59899   1.60932   1.61530   1.62229   1.63249
 Alpha virt. eigenvalues --    1.64069   1.64512   1.65510   1.66626   1.66904
 Alpha virt. eigenvalues --    1.68676   1.69505   1.71226   1.73596   1.75246
 Alpha virt. eigenvalues --    1.77369   1.77971   1.79427   1.80597   1.82373
 Alpha virt. eigenvalues --    1.82528   1.84682   1.85457   1.86975   1.88180
 Alpha virt. eigenvalues --    1.89891   1.92427   1.93970   1.94876   1.96257
 Alpha virt. eigenvalues --    1.96851   1.97925   2.00670   2.01690   2.02885
 Alpha virt. eigenvalues --    2.03913   2.07590   2.08009   2.09440   2.10720
 Alpha virt. eigenvalues --    2.13496   2.14998   2.15973   2.16526   2.18483
 Alpha virt. eigenvalues --    2.19686   2.20491   2.22824   2.26185   2.28531
 Alpha virt. eigenvalues --    2.31169   2.32700   2.33454   2.35525   2.37362
 Alpha virt. eigenvalues --    2.38534   2.39816   2.42306   2.42756   2.45374
 Alpha virt. eigenvalues --    2.45983   2.47038   2.49619   2.51917   2.53923
 Alpha virt. eigenvalues --    2.56974   2.61343   2.62225   2.63891   2.66618
 Alpha virt. eigenvalues --    2.67212   2.69018   2.69356   2.70673   2.75270
 Alpha virt. eigenvalues --    2.76649   2.78221   2.79499   2.81772   2.84584
 Alpha virt. eigenvalues --    2.85162   2.87326   2.90056   2.91388   2.94017
 Alpha virt. eigenvalues --    2.96171   2.98928   3.00543   3.02873   3.05736
 Alpha virt. eigenvalues --    3.07859   3.12180   3.13561   3.16102   3.16151
 Alpha virt. eigenvalues --    3.17921   3.21090   3.22996   3.24339   3.25689
 Alpha virt. eigenvalues --    3.26101   3.28051   3.28684   3.30989   3.33367
 Alpha virt. eigenvalues --    3.35359   3.36671   3.40739   3.41968   3.42725
 Alpha virt. eigenvalues --    3.45251   3.47891   3.50583   3.51781   3.53387
 Alpha virt. eigenvalues --    3.53860   3.59506   3.61663   3.62688   3.65083
 Alpha virt. eigenvalues --    3.68214   3.71561   3.74700   3.75351   3.81011
 Alpha virt. eigenvalues --    3.85125   3.87610   3.90337   3.91385   3.96113
 Alpha virt. eigenvalues --    3.97694   4.00271   4.02549   4.05305   4.09929
 Alpha virt. eigenvalues --    4.13340   4.16571   4.18804   4.20571   4.24836
 Alpha virt. eigenvalues --    4.28226   4.29078   4.32548   4.36234   4.40205
 Alpha virt. eigenvalues --    4.43319   4.44786   4.48505   4.51947   4.55090
 Alpha virt. eigenvalues --    4.59755   4.62217   4.66293   4.76053   4.78974
 Alpha virt. eigenvalues --    4.83110   4.93641   4.95058   4.97050   5.06819
 Alpha virt. eigenvalues --    5.08679   5.11129   5.14704   5.16919   5.18929
 Alpha virt. eigenvalues --    5.32303   5.34357   5.37099   5.50075   5.55635
 Alpha virt. eigenvalues --    5.67313   5.82780   5.85644   6.18252   6.42070
 Alpha virt. eigenvalues --    6.50305   6.61058   6.68466   6.92089   7.13448
 Alpha virt. eigenvalues --    7.17431   7.73196  10.85309  10.87097  11.40337
 Alpha virt. eigenvalues --   22.32795  22.49689  22.53138  22.77652  23.28812
 Alpha virt. eigenvalues --   25.62796  32.16586  44.02752
          Condensed to atoms (all electrons):
               1          2          3          4          5          6
     1  C    6.314554   0.189776  -0.168663   0.145464   0.000071   0.000957
     2  C    0.189776   4.633956   0.657060   0.042841   0.000868   0.000175
     3  O   -0.168663   0.657060   8.092700   0.015163  -0.001833  -0.000017
     4  C    0.145464   0.042841   0.015163   4.876606   0.009011   0.004637
     5  C    0.000071   0.000868  -0.001833   0.009011   4.873428   0.403373
     6  H    0.000957   0.000175  -0.000017   0.004637   0.403373   0.477668
     7  H   -0.002834   0.001501   0.001192  -0.012196   0.412591  -0.018390
     8  H   -0.006383   0.001128   0.000270  -0.001632   0.420114  -0.015929
     9  N   -0.083243   0.008641   0.000606   0.063881   0.218908  -0.017953
    10  H   -0.002016  -0.000236   0.000006  -0.003624  -0.015256  -0.005426
    11  H    0.005452  -0.000299   0.000003  -0.014313  -0.019364  -0.002657
    12  Cl  -0.054240   0.001308  -0.000316   0.335478   0.001502  -0.000517
    13  Br  -0.075608  -0.004271  -0.000013   0.348522   0.004148  -0.000489
    14  H    0.385898  -0.029873   0.010587  -0.029036  -0.001194  -0.000015
    15  C   -0.209562   0.302664  -0.115484   0.056381   0.005254   0.000200
    16  H    0.005897  -0.042015   0.007212  -0.002929   0.002954   0.000088
    17  H    0.019342  -0.038876   0.011516  -0.004466  -0.000547  -0.000017
    18  H    0.012866  -0.015189   0.001798  -0.006923  -0.000221  -0.000000
               7          8          9         10         11         12
     1  C   -0.002834  -0.006383  -0.083243  -0.002016   0.005452  -0.054240
     2  C    0.001501   0.001128   0.008641  -0.000236  -0.000299   0.001308
     3  O    0.001192   0.000270   0.000606   0.000006   0.000003  -0.000316
     4  C   -0.012196  -0.001632   0.063881  -0.003624  -0.014313   0.335478
     5  C    0.412591   0.420114   0.218908  -0.015256  -0.019364   0.001502
     6  H   -0.018390  -0.015929  -0.017953  -0.005426  -0.002657  -0.000517
     7  H    0.498318  -0.023429  -0.027419  -0.003687   0.005288   0.002303
     8  H   -0.023429   0.500884  -0.031908   0.005056  -0.007260   0.000117
     9  N   -0.027419  -0.031908   6.565412   0.344078   0.352838  -0.058120
    10  H   -0.003687   0.005056   0.344078   0.402749  -0.020017   0.005395
    11  H    0.005288  -0.007260   0.352838  -0.020017   0.402072   0.004015
    12  Cl   0.002303   0.000117  -0.058120   0.005395   0.004015  16.912020
    13  Br   0.000512   0.001232  -0.078075   0.004955   0.002270  -0.065280
    14  H   -0.000248   0.000265   0.000726   0.000548  -0.000285  -0.005992
    15  C   -0.000094  -0.005243  -0.004137   0.000017  -0.000086  -0.000978
    16  H   -0.000835  -0.001175   0.001075  -0.000012  -0.000391   0.000020
    17  H   -0.000042   0.000081   0.000484  -0.000003  -0.000001   0.000019
    18  H    0.000013   0.000395  -0.000077   0.000001   0.000035   0.000064
              13         14         15         16         17         18
     1  C   -0.075608   0.385898  -0.209562   0.005897   0.019342   0.012866
     2  C   -0.004271  -0.029873   0.302664  -0.042015  -0.038876  -0.015189
     3  O   -0.000013   0.010587  -0.115484   0.007212   0.011516   0.001798
     4  C    0.348522  -0.029036   0.056381  -0.002929  -0.004466  -0.006923
     5  C    0.004148  -0.001194   0.005254   0.002954  -0.000547  -0.000221
     6  H   -0.000489  -0.000015   0.000200   0.000088  -0.000017  -0.000000
     7  H    0.000512  -0.000248  -0.000094  -0.000835  -0.000042   0.000013
     8  H    0.001232   0.000265  -0.005243  -0.001175   0.000081   0.000395
     9  N   -0.078075   0.000726  -0.004137   0.001075   0.000484  -0.000077
    10  H    0.004955   0.000548   0.000017  -0.000012  -0.000003   0.000001
    11  H    0.002270  -0.000285  -0.000086  -0.000391  -0.000001   0.000035
    12  Cl  -0.065280  -0.005992  -0.000978   0.000020   0.000019   0.000064
    13  Br  34.949656   0.006284  -0.012651  -0.006844   0.001934  -0.001367
    14  H    0.006284   0.513561   0.012692  -0.000839  -0.000322  -0.000482
    15  C   -0.012651   0.012692   5.204662   0.390655   0.381081   0.376502
    16  H   -0.006844  -0.000839   0.390655   0.568217  -0.015750  -0.025247
    17  H    0.001934  -0.000322   0.381081  -0.015750   0.525734  -0.011742
    18  H   -0.001367  -0.000482   0.376502  -0.025247  -0.011742   0.519507
 Mulliken charges:
               1
     1  C   -0.477730
     2  C    0.290841
     3  O   -0.511787
     4  C    0.177136
     5  C   -0.313808
     6  H    0.174314
     7  H    0.167456
     8  H    0.163418
     9  N   -0.255716
    10  H    0.287473
    11  H    0.292702
    12  Cl  -0.076797
    13  Br  -0.074917
    14  H    0.137727
    15  C   -0.381872
    16  H    0.119918
    17  H    0.131576
    18  H    0.150066
 Sum of Mulliken charges =  -0.00000
 Mulliken charges with hydrogens summed into heavy atoms:
               1
     1  C   -0.340002
     2  C    0.290841
     3  O   -0.511787
     4  C    0.177136
     5  C    0.191380
     9  N    0.324459
    12  Cl  -0.076797
    13  Br  -0.074917
    15  C    0.019687
 APT charges:
               1
     1  C   -0.533682
     2  C   -0.442700
     3  O    0.062001
     4  C   -0.519260
     5  C   -1.115823
     6  H    0.723034
     7  H    0.285526
     8  H    0.248667
     9  N   -0.696176
    10  H    0.659829
    11  H    0.511854
    12  Cl   0.201615
    13  Br   0.104503
    14  H    0.423507
    15  C   -0.969999
    16  H    0.103866
    17  H    0.619430
    18  H    0.333809
 Sum of APT charges =  -0.00000
 APT charges with hydrogens summed into heavy atoms:
               1
     1  C   -0.110175
     2  C   -0.442700
     3  O    0.062001
     4  C   -0.519260
     5  C    0.141404
     9  N    0.475506
    12  Cl   0.201615
    13  Br   0.104503
    15  C    0.087106
 Electronic spatial extent (au):  <R**2>=           2023.7659
 Charge=             -0.0000 electrons
 Dipole moment (field-independent basis, Debye):
    X=              6.3510    Y=              2.2971    Z=              8.1649  Tot=             10.5961
 Quadrupole moment (field-independent basis, Debye-Ang):
   XX=            -94.3031   YY=            -66.0506   ZZ=            -69.5011
   XY=              6.0060   XZ=             -6.7555   YZ=              7.2046
 Traceless Quadrupole moment (field-independent basis, Debye-Ang):
   XX=            -17.6848   YY=             10.5677   ZZ=              7.1171
   XY=              6.0060   XZ=             -6.7555   YZ=              7.2046
 Octapole moment (field-independent basis, Debye-Ang**2):
  XXX=            115.0478  YYY=            -20.9428  ZZZ=             33.2710  XYY=             16.9552
  XXY=            -18.3490  XXZ=             39.9367  XZZ=             26.7649  YZZ=              1.6768
  YYZ=             14.5416  XYZ=             -1.7975
 Hexadecapole moment (field-independent basis, Debye-Ang**3):
 XXXX=          -1478.9405 YYYY=           -666.6748 ZZZZ=           -503.8441 XXXY=             16.8970
 XXXZ=           -104.0336 YYYX=            -28.8260 YYYZ=             21.3752 ZZZX=             -5.2548
 ZZZY=             23.7650 XXYY=           -307.5281 XXZZ=           -316.2376 YYZZ=           -183.9762
 XXYZ=             12.6077 YYXZ=              5.8656 ZZXY=             -2.0581
 N-N= 8.495191955867D+02 E-N=-9.705413614876D+03  KE= 3.354502330760D+03
  Exact polarizability:   0.000   0.000   0.000   0.000   0.000   0.000
 Approx polarizability: 144.064   1.634 122.065  11.245  -4.479 116.740
   1 Symmetry operations used in ECPInt.
 ECPInt:  NShTT=   10153 NPrTT=   34213 LenC2=    9787 LenP2D=   24864.
 LDataN:  DoStor=T MaxTD1= 8 Len=  415
 D2PCM: PCM CHGder 2nd derivatives, FixD1E=F FixD2E=F DoIter=F DoCFld=F I1PDM=0
 Calling FoFJK, ICntrl=    100147 FMM=F ISym2X=0 I1Cent= 0 IOpClX= 0 NMat=1 NMatS=1 NMatT=0.
 ***** Axes restored to original set *****
 -------------------------------------------------------------------
 Center     Atomic                   Forces (Hartrees/Bohr)
 Number     Number              X              Y              Z
 -------------------------------------------------------------------
      1        6           0.000001514    0.000000727    0.000001314
      2        6           0.000008567   -0.000000630    0.000010677
      3        8          -0.000013125   -0.000015799    0.000002236
      4        6           0.000157039   -0.000493335    0.001003695
      5        6           0.000004328    0.000000196    0.000010642
      6        1           0.000012610    0.000006876    0.000002738
      7        1           0.000006238   -0.000000430    0.000006149
      8        1           0.000007456   -0.000002355    0.000000530
      9        7          -0.000148442    0.000510916   -0.001017359
     10        1           0.000002112    0.000008371   -0.000003447
     11        1           0.000001139    0.000008148   -0.000005341
     12       17          -0.000001370    0.000005123   -0.000004540
     13       35          -0.000004205    0.000004721   -0.000004897
     14        1          -0.000000830   -0.000008488    0.000003200
     15        6          -0.000008377   -0.000005727   -0.000004112
     16        1          -0.000005917   -0.000002033   -0.000002327
     17        1          -0.000004542   -0.000008295    0.000000551
     18        1          -0.000014193   -0.000007986    0.000000293
 -------------------------------------------------------------------
 Cartesian Forces:  Max     0.001017359 RMS     0.000219238
 FormGI is forming the generalized inverse of G from B-inverse, IUseBI=4.

 GradGradGradGradGradGradGradGradGradGradGradGradGradGradGradGradGradGrad
 Berny optimization.
 Internal  Forces:  Max     0.001137682 RMS     0.000126470
 Search for a saddle point.
 Step number   1 out of a maximum of   70
 All quantities printed in internal units (Hartrees-Bohrs-Radians)
 Swapping is turned off.
 Second derivative matrix not updated -- analytic derivatives used.
 ITU=  0
     Eigenvalues ---   -0.02680  -0.00226   0.00087   0.00117   0.00761
     Eigenvalues ---    0.01049   0.02184   0.03457   0.03624   0.04150
     Eigenvalues ---    0.04627   0.04707   0.05278   0.05505   0.05661
     Eigenvalues ---    0.05686   0.08360   0.08714   0.11544   0.11886
     Eigenvalues ---    0.13003   0.13237   0.13385   0.14311   0.15654
     Eigenvalues ---    0.17531   0.18009   0.18268   0.18717   0.20740
     Eigenvalues ---    0.22402   0.23686   0.28442   0.29845   0.34161
     Eigenvalues ---    0.34471   0.34732   0.34761   0.34847   0.35220
     Eigenvalues ---    0.35352   0.36349   0.36744   0.41849   0.45084
     Eigenvalues ---    0.45134   0.53791   0.73892
 Eigenvectors required to have negative eigenvalues:
                          R6        D10       D7        R8        R2
   1                   -0.89185   0.17533   0.15532   0.13606   0.11456
                          D6        A7        A19       A10       D9
   1                   -0.10988   0.10414   0.09957   0.09561  -0.08987
 RFO step:  Lambda0=3.844546053D-05 Lambda=-2.25851242D-03.
 Linear search not attempted -- option 19 set.
 Maximum step size (   0.010) exceeded in Quadratic search.
    -- Step size scaled by   0.298
 Iteration  1 RMS(Cart)=  0.00206774 RMS(Int)=  0.00000281
 Iteration  2 RMS(Cart)=  0.00000328 RMS(Int)=  0.00000048
 Iteration  3 RMS(Cart)=  0.00000000 RMS(Int)=  0.00000048
 Variable       Old X    -DE/DX   Delta X   Delta X   Delta X     New X
                                 (Linear)    (Quad)   (Total)
    R1        2.70415  -0.00000   0.00000  -0.00089  -0.00089   2.70326
    R2        2.62256   0.00000   0.00000   0.00127   0.00127   2.62383
    R3        2.04589  -0.00000   0.00000  -0.00003  -0.00003   2.04585
    R4        2.33797  -0.00001   0.00000   0.00041   0.00041   2.33838
    R5        2.86316   0.00000   0.00000   0.00025   0.00025   2.86341
    R6        3.54223   0.00114   0.00000  -0.00902  -0.00902   3.53321
    R7        3.35625  -0.00000   0.00000   0.00067   0.00067   3.35691
    R8        3.69275  -0.00000   0.00000   0.00193   0.00193   3.69468
    R9        2.05725   0.00000   0.00000  -0.00008  -0.00008   2.05717
   R10        2.05703  -0.00000   0.00000  -0.00017  -0.00017   2.05686
   R11        2.05373   0.00000   0.00000  -0.00009  -0.00009   2.05364
   R12        2.75663  -0.00001   0.00000   0.00047   0.00047   2.75710
   R13        1.91687   0.00000   0.00000   0.00013   0.00013   1.91699
   R14        1.91695   0.00000   0.00000   0.00013   0.00013   1.91708
   R15        2.05591   0.00000   0.00000   0.00001   0.00001   2.05593
   R16        2.05700   0.00000   0.00000   0.00002   0.00002   2.05702
   R17        2.06384   0.00000   0.00000   0.00001   0.00001   2.06385
    A1        2.29284  -0.00001   0.00000  -0.00024  -0.00024   2.29259
    A2        1.98718   0.00000   0.00000   0.00044   0.00044   1.98761
    A3        1.99924   0.00001   0.00000  -0.00017  -0.00017   1.99907
    A4        2.08707   0.00001   0.00000   0.00048   0.00048   2.08755
    A5        2.14559  -0.00001   0.00000  -0.00004  -0.00004   2.14555
    A6        2.05045   0.00001   0.00000  -0.00045  -0.00045   2.05000
    A7        1.98738  -0.00000   0.00000   0.00131   0.00131   1.98869
    A8        1.98074   0.00000   0.00000  -0.00089  -0.00089   1.97985
    A9        2.10905  -0.00001   0.00000  -0.00103  -0.00103   2.10802
   A10        1.70976   0.00000   0.00000   0.00134   0.00134   1.71110
   A11        1.71822   0.00001   0.00000   0.00086   0.00086   1.71907
   A12        1.90177   0.00000   0.00000  -0.00080  -0.00080   1.90097
   A13        1.91584   0.00000   0.00000   0.00039   0.00039   1.91623
   A14        1.90957   0.00000   0.00000   0.00028   0.00028   1.90986
   A15        1.92448   0.00000   0.00000  -0.00095  -0.00095   1.92353
   A16        1.90369   0.00000   0.00000   0.00032   0.00032   1.90401
   A17        1.89751  -0.00000   0.00000  -0.00002  -0.00002   1.89749
   A18        1.91257  -0.00000   0.00000  -0.00001  -0.00001   1.91256
   A19        1.95313  -0.00001   0.00000   0.00107   0.00107   1.95420
   A20        1.83751   0.00000   0.00000   0.00011   0.00011   1.83762
   A21        1.89516   0.00000   0.00000  -0.00052  -0.00052   1.89464
   A22        1.93827   0.00001   0.00000  -0.00033  -0.00033   1.93794
   A23        1.95251   0.00000   0.00000  -0.00019  -0.00019   1.95232
   A24        1.88224  -0.00000   0.00000  -0.00017  -0.00017   1.88207
   A25        1.98963   0.00000   0.00000   0.00041   0.00041   1.99004
   A26        1.88796   0.00000   0.00000  -0.00005  -0.00005   1.88791
   A27        1.90784  -0.00000   0.00000  -0.00008  -0.00008   1.90776
   A28        1.91229  -0.00000   0.00000  -0.00014  -0.00014   1.91215
   A29        1.87264  -0.00000   0.00000  -0.00005  -0.00005   1.87258
   A30        1.89146   0.00000   0.00000  -0.00010  -0.00010   1.89136
    D1        3.11221   0.00000   0.00000  -0.00072  -0.00072   3.11149
    D2       -0.04343   0.00000   0.00000  -0.00099  -0.00099  -0.04442
    D3        0.07272   0.00000   0.00000  -0.00103  -0.00103   0.07169
    D4       -3.08292  -0.00000   0.00000  -0.00130  -0.00130  -3.08422
    D5       -1.40212  -0.00000   0.00000   0.00192   0.00192  -1.40020
    D6        2.94473  -0.00000   0.00000  -0.00003  -0.00003   2.94470
    D7        0.63686   0.00000   0.00000   0.00348   0.00348   0.64033
    D8        1.63681  -0.00000   0.00000   0.00226   0.00226   1.63907
    D9       -0.29952   0.00000   0.00000   0.00030   0.00030  -0.29922
   D10       -2.60739   0.00000   0.00000   0.00381   0.00381  -2.60358
   D11        0.62045  -0.00000   0.00000  -0.00142  -0.00142   0.61904
   D12        2.75215  -0.00000   0.00000  -0.00136  -0.00136   2.75079
   D13       -1.47486   0.00000   0.00000  -0.00156  -0.00156  -1.47642
   D14       -2.53491  -0.00000   0.00000  -0.00167  -0.00167  -2.53658
   D15       -0.40321  -0.00000   0.00000  -0.00162  -0.00162  -0.40483
   D16        1.65296   0.00000   0.00000  -0.00182  -0.00182   1.65115
   D17        0.14967  -0.00000   0.00000  -0.00211  -0.00211   0.14755
   D18       -1.95781  -0.00000   0.00000  -0.00238  -0.00238  -1.96019
   D19        2.31340  -0.00000   0.00000  -0.00200  -0.00200   2.31140
   D20        2.24633   0.00000   0.00000  -0.00181  -0.00181   2.24452
   D21        0.13886  -0.00000   0.00000  -0.00208  -0.00208   0.13678
   D22       -1.87312  -0.00000   0.00000  -0.00170  -0.00170  -1.87482
   D23       -2.10582   0.00000   0.00000  -0.00217  -0.00217  -2.10799
   D24        2.06989   0.00000   0.00000  -0.00244  -0.00244   2.06745
   D25        0.05791   0.00000   0.00000  -0.00206  -0.00206   0.05585
   D26       -2.93923  -0.00000   0.00000  -0.00174  -0.00174  -2.94097
   D27       -0.89134  -0.00000   0.00000  -0.00113  -0.00113  -0.89247
   D28        1.21271   0.00000   0.00000  -0.00170  -0.00170   1.21101
   D29       -0.83812  -0.00000   0.00000  -0.00185  -0.00185  -0.83997
   D30        1.20977  -0.00000   0.00000  -0.00124  -0.00124   1.20853
   D31       -2.96935   0.00000   0.00000  -0.00182  -0.00182  -2.97117
   D32        1.24105  -0.00000   0.00000  -0.00148  -0.00148   1.23956
   D33       -2.99425  -0.00000   0.00000  -0.00087  -0.00087  -2.99512
   D34       -0.89019   0.00000   0.00000  -0.00145  -0.00145  -0.89164
         Item               Value     Threshold  Converged?
 Maximum Force            0.001138     0.000450     NO 
 RMS     Force            0.000126     0.000300     YES
 Maximum Displacement     0.005984     0.001800     NO 
 RMS     Displacement     0.002067     0.001200     NO 
 Predicted change in Energy= 8.628602D-06
 GradGradGradGradGradGradGradGradGradGradGradGradGradGradGradGradGradGrad

                          Input orientation:                          
 ---------------------------------------------------------------------
 Center     Atomic      Atomic             Coordinates (Angstroms)
 Number     Number       Type             X           Y           Z
 ---------------------------------------------------------------------
      1          6           0        0.911679    0.617192    0.809718
      2          6           0        2.151453   -0.041470    0.535012
      3          8           0        3.181516    0.328963    1.112030
      4          6           0       -0.362104    0.428696    0.290295
      5          6           0        0.612197    1.760352   -1.932931
      6          1           0        0.400096    2.394703   -2.791814
      7          1           0        1.123393    2.338266   -1.165203
      8          1           0        1.249927    0.936112   -2.241052
      9          7           0       -0.629584    1.235675   -1.374939
     10          1           0       -1.296828    1.981063   -1.206861
     11          1           0       -1.066604    0.561221   -1.994038
     12         17           0       -1.627117    1.291687    1.190625
     13         35           0       -1.007964   -1.363369   -0.150096
     14          1           0        1.003727    1.463322    1.478788
     15          6           0        2.270800   -1.203140   -0.430525
     16          1           0        1.611696   -1.131556   -1.293132
     17          1           0        3.304794   -1.260984   -0.765795
     18          1           0        2.025193   -2.131592    0.089507
 ---------------------------------------------------------------------
                    Distance matrix (angstroms):
                    1          2          3          4          5
     1  C    0.000000
     2  C    1.430503   0.000000
     3  O    2.307950   1.237417   0.000000
     4  C    1.388472   2.568835   3.639017   0.000000
     5  C    2.986407   3.421493   4.233446   2.768628   0.000000
     6  H    4.048739   4.479951   5.219538   3.734371   1.088608
     7  H    2.628161   3.100126   3.668646   2.823408   1.088445
     8  H    3.085987   3.078141   3.916992   3.043655   1.086742
     9  N    2.744219   3.607378   4.640219   1.869696   1.458994
    10  H    3.286980   4.360665   5.306812   2.350537   2.054329
    11  H    3.431877   4.137055   5.267649   2.394172   2.063982
    12  Cl   2.654340   4.060139   4.904689   1.776402   3.871793
    13  Br   2.920427   3.492665   4.691343   1.955141   3.944751
    14  H    1.082619   2.114802   2.482750   2.085297   3.446933
    15  C    2.588247   1.515251   2.357164   3.180355   3.713552
    16  H    2.823140   2.195845   3.222151   2.972796   3.125935
    17  H    3.425899   2.123561   2.463607   4.173307   4.211977
    18  H    3.051955   2.140801   2.904647   3.506363   4.608040
                    6          7          8          9         10
     6  H    0.000000
     7  H    1.781069   0.000000
     8  H    1.775679   1.771863   0.000000
     9  N    2.100267   2.081496   2.091041   0.000000
    10  H    2.358542   2.446794   2.940651   1.014430   0.000000
    11  H    2.479780   2.939548   2.359634   1.014474   1.639695
    12  Cl   4.602831   3.769690   4.492240   2.753239   2.516400
    13  Br   4.804624   4.390357   3.841586   2.898006   3.519292
    14  H    4.412469   2.787568   3.765073   3.295950   3.573978
    15  C    4.692514   3.794451   2.982716   3.905376   4.844566
    16  H    4.018522   3.506347   2.303190   3.260952   4.260909
    17  H    5.089801   4.227605   3.350537   4.699329   5.646267
    18  H    5.606272   4.729395   3.929803   4.531106   5.443374
                   11         12         13         14         15
    11  H    0.000000
    12  Cl   3.315092   0.000000
    13  Br   2.666010   3.038126   0.000000
    14  H    4.142533   2.652139   3.832799   0.000000
    15  C    4.086051   4.903678   3.294634   3.515818   0.000000
    16  H    3.245004   4.746690   2.867558   3.845329   1.087949
    17  H    4.892661   5.887908   4.357689   4.213657   1.088528
    18  H    4.599088   5.125492   3.138091   3.987092   1.092144
                   16         17         18
    16  H    0.000000
    17  H    1.778037   0.000000
    18  H    1.755773   1.768298   0.000000
 Stoichiometry    C5H9BrClNO
 Framework group  C1[X(C5H9BrClNO)]
 Deg. of freedom    48
 Full point group                 C1      NOp   1
 Largest Abelian subgroup         C1      NOp   1
 Largest concise Abelian subgroup C1      NOp   1
                         Standard orientation:                         
 ---------------------------------------------------------------------
 Center     Atomic      Atomic             Coordinates (Angstroms)
 Number     Number       Type             X           Y           Z
 ---------------------------------------------------------------------
      1          6           0       -0.912075    0.616921   -0.809558
      2          6           0       -2.151699   -0.042227   -0.535341
      3          8           0       -3.181788    0.328191   -1.112323
      4          6           0        0.361691    0.428538   -0.290051
      5          6           0       -0.613297    1.758845    1.933681
      6          1           0       -0.401495    2.392843    2.792899
      7          1           0       -1.124552    2.336984    1.166161
      8          1           0       -1.250834    0.934276    2.241318
      9          7           0        0.628711    1.234791    1.375608
     10          1           0        1.295765    1.980449    1.207982
     11          1           0        1.065837    0.560164    1.994443
     12         17           0        1.626582    1.292323   -1.189791
     13         35           0        1.008001   -1.363555    0.149567
     14          1           0       -1.004272    1.463347   -1.478234
     15          6           0       -2.270848   -1.204395    0.429621
     16          1           0       -1.611883   -1.133039    1.292352
     17          1           0       -3.304871   -1.262696    0.764720
     18          1           0       -2.024904   -2.132527   -0.090824
 ---------------------------------------------------------------------
 Rotational constants (GHZ):           1.0237403           0.7461531           0.6219187
 Standard basis: def2TZVP (5D, 7F)
 There are   403 symmetry adapted cartesian basis functions of A   symmetry.
 There are   356 symmetry adapted basis functions of A   symmetry.
   356 basis functions,   612 primitive gaussians,   403 cartesian basis functions
    53 alpha electrons       53 beta electrons
       nuclear repulsion energy       849.5950721848 Hartrees.
 NAtoms=   18 NActive=   18 NUniq=   18 SFac= 1.00D+00 NAtFMM=   60 NAOKFM=F Big=F
 Integral buffers will be    131072 words long.
 Raffenetti 2 integral format.
 Two-electron integral symmetry is turned on.
 Nuclear repulsion after empirical dispersion term =      849.5827185504 Hartrees.
 ------------------------------------------------------------------------------
 Polarizable Continuum Model (PCM)
 =================================
 Model                : PCM.
 Atomic radii         : UFF (Universal Force Field).
 Polarization charges : Total charges.
 Charge compensation  : None.
 Solution method      : Matrix inversion.
 Cavity type          : Scaled VdW (van der Waals Surface) (Alpha=1.100).
 Cavity algorithm     : GePol (No added spheres)
                        Default sphere list used, NSphG=   18.
                        Lebedev-Laikov grids with approx.  5.0 points / Ang**2.
                        Smoothing algorithm: York/Karplus (Gamma=1.0000).
                        Polarization charges: spherical gaussians, with
                                              point-specific exponents (IZeta= 3).
                        Self-potential: point-specific (ISelfS= 7).
                        Self-field    : sphere-specific E.n sum rule (ISelfD= 2).
 1st derivatives      : Analytical E(r).r(x)/FMM algorithm (CHGder, D1EAlg=3).
                        Cavity 1st derivative terms included.
 Solvent              : Water, Eps=  78.355300 Eps(inf)=   1.777849
 ------------------------------------------------------------------------------
 Spheres list:
 ISph  on   Nord     Re0    Alpha      Xe            Ye            Ze
    1   C      1    1.9255  1.100     -0.912075      0.616921     -0.809558
    2   C      2    1.9255  1.100     -2.151699     -0.042227     -0.535341
    3   O      3    1.7500  1.100     -3.181788      0.328191     -1.112323
    4   C      4    1.9255  1.100      0.361691      0.428538     -0.290051
    5   C      5    1.9255  1.100     -0.613297      1.758845      1.933681
    6   H      6    1.4430  1.100     -0.401495      2.392843      2.792899
    7   H      7    1.4430  1.100     -1.124552      2.336984      1.166161
    8   H      8    1.4430  1.100     -1.250834      0.934276      2.241318
    9   N      9    1.8300  1.100      0.628711      1.234791      1.375608
   10   H     10    1.4430  1.100      1.295765      1.980449      1.207982
   11   H     11    1.4430  1.100      1.065837      0.560164      1.994443
   12  Cl     12    1.9735  1.100      1.626582      1.292323     -1.189791
   13  Br     13    2.0945  1.100      1.008001     -1.363555      0.149567
   14   H     14    1.4430  1.100     -1.004272      1.463347     -1.478234
   15   C     15    1.9255  1.100     -2.270848     -1.204395      0.429621
   16   H     16    1.4430  1.100     -1.611883     -1.133039      1.292352
   17   H     17    1.4430  1.100     -3.304871     -1.262696      0.764720
   18   H     18    1.4430  1.100     -2.024904     -2.132527     -0.090824
 ------------------------------------------------------------------------------
 One-electron integrals computed using PRISM.
   1 Symmetry operations used in ECPInt.
 ECPInt:  NShTT=   10153 NPrTT=   34213 LenC2=    9788 LenP2D=   24867.
 LDataN:  DoStor=T MaxTD1= 6 Len=  172
 NBasis=   356 RedAO= T EigKep=  8.91D-05  NBF=   356
 NBsUse=   356 1.00D-06 EigRej= -1.00D+00 NBFU=   356
 Initial guess from the checkpoint file:  "/beegfs/scratch/user/q/tla25/Gau-12770.chk"
 B after Tr=    -0.000000    0.000000   -0.000000
         Rot=    1.000000   -0.000378    0.000068   -0.000354 Ang=  -0.06 deg.
 Requested convergence on RMS density matrix=1.00D-08 within 128 cycles.
 Requested convergence on MAX density matrix=1.00D-06.
 Requested convergence on             energy=1.00D-06.
 No special actions if energy rises.
 Inv3:  Mode=1 IEnd=     7133292.
 Iteration    1 A*A^-1 deviation from unit magnitude is 4.66D-15 for   1530.
 Iteration    1 A*A^-1 deviation from orthogonality  is 1.71D-15 for    844    497.
 Iteration    1 A^-1*A deviation from unit magnitude is 5.11D-15 for   1533.
 Iteration    1 A^-1*A deviation from orthogonality  is 3.01D-15 for   1378   1363.
 Error on total polarization charges =  0.01372
 SCF Done:  E(RwB97XD) =  -3360.31583834     A.U. after   10 cycles
            NFock= 10  Conv=0.37D-08     -V/T= 2.0017
   1 Symmetry operations used in ECPInt.
 ECPInt:  NShTT=   10153 NPrTT=   34213 LenC2=    9788 LenP2D=   24867.
 LDataN:  DoStor=T MaxTD1= 7 Len=  274
 D1PCM: PCM CHGder 1st derivatives, ID1Alg=3 FixD1E=F DoIter=F DoCFld=F I1PDM=0.
 Calling FoFJK, ICntrl=      2127 FMM=F ISym2X=0 I1Cent= 0 IOpClX= 0 NMat=1 NMatS=1 NMatT=0.
 ***** Axes restored to original set *****
 -------------------------------------------------------------------
 Center     Atomic                   Forces (Hartrees/Bohr)
 Number     Number              X              Y              Z
 -------------------------------------------------------------------
      1        6           0.000004298   -0.000004551   -0.000004043
      2        6           0.000006411    0.000001124    0.000003272
      3        8          -0.000011754   -0.000017219    0.000006490
      4        6           0.000109798   -0.000342581    0.000704552
      5        6           0.000006967    0.000006569    0.000010678
      6        1           0.000012905    0.000003490    0.000000349
      7        1           0.000005129    0.000003787    0.000005091
      8        1           0.000009079   -0.000002286    0.000005262
      9        7          -0.000102490    0.000360030   -0.000717909
     10        1          -0.000002235    0.000003745   -0.000000651
     11        1           0.000008282    0.000009591   -0.000011551
     12       17           0.000001488    0.000009788   -0.000003837
     13       35          -0.000012811    0.000004408   -0.000002726
     14        1          -0.000002743   -0.000012643    0.000009696
     15        6          -0.000009093   -0.000005787   -0.000002685
     16        1          -0.000007075   -0.000002615   -0.000000386
     17        1          -0.000005880   -0.000006921   -0.000001734
     18        1          -0.000010275   -0.000007927    0.000000134
 -------------------------------------------------------------------
 Cartesian Forces:  Max     0.000717909 RMS     0.000154188

 GradGradGradGradGradGradGradGradGradGradGradGradGradGradGradGradGradGrad
 Berny optimization.
 FormGI is forming the generalized inverse of G from B-inverse, IUseBI=4.
 Internal  Forces:  Max     0.000801999 RMS     0.000089207
 Search for a saddle point.
 Step number   2 out of a maximum of   70
 All quantities printed in internal units (Hartrees-Bohrs-Radians)
 Swapping is turned off.
 Update second derivatives using D2CorX and points    1    2
 ITU=  0  0
     Eigenvalues ---   -0.02677  -0.00227   0.00088   0.00119   0.00758
     Eigenvalues ---    0.01047   0.02184   0.03456   0.03624   0.04149
     Eigenvalues ---    0.04627   0.04707   0.05278   0.05505   0.05661
     Eigenvalues ---    0.05686   0.08359   0.08714   0.11544   0.11886
     Eigenvalues ---    0.13004   0.13237   0.13385   0.14311   0.15654
     Eigenvalues ---    0.17531   0.18009   0.18268   0.18717   0.20740
     Eigenvalues ---    0.22402   0.23687   0.28442   0.29845   0.34161
     Eigenvalues ---    0.34471   0.34732   0.34761   0.34847   0.35220
     Eigenvalues ---    0.35352   0.36349   0.36744   0.41849   0.45084
     Eigenvalues ---    0.45134   0.53791   0.73892
 Eigenvectors required to have negative eigenvalues:
                          R6        D10       D7        R8        R2
   1                   -0.89166   0.17630   0.15633   0.13654   0.11474
                          D6        A7        A19       A10       D9
   1                   -0.10860   0.10365   0.09928   0.09617  -0.08863
 RFO step:  Lambda0=1.903783019D-05 Lambda=-2.26669661D-03.
 Linear search not attempted -- option 19 set.
 Maximum step size (   0.010) exceeded in Quadratic search.
    -- Step size scaled by   0.425
 Iteration  1 RMS(Cart)=  0.00262297 RMS(Int)=  0.00000434
 Iteration  2 RMS(Cart)=  0.00000514 RMS(Int)=  0.00000049
 Iteration  3 RMS(Cart)=  0.00000000 RMS(Int)=  0.00000049
 Variable       Old X    -DE/DX   Delta X   Delta X   Delta X     New X
                                 (Linear)    (Quad)   (Total)
    R1        2.70326  -0.00000   0.00000  -0.00090  -0.00090   2.70236
    R2        2.62383   0.00000   0.00000   0.00127   0.00127   2.62510
    R3        2.04585  -0.00000   0.00000  -0.00004  -0.00004   2.04581
    R4        2.33838  -0.00001   0.00000   0.00041   0.00041   2.33879
    R5        2.86341   0.00000   0.00000   0.00025   0.00025   2.86366
    R6        3.53321   0.00080   0.00000  -0.00895  -0.00895   3.52426
    R7        3.35691   0.00000   0.00000   0.00063   0.00063   3.35754
    R8        3.69468   0.00000   0.00000   0.00200   0.00200   3.69668
    R9        2.05717   0.00000   0.00000  -0.00007  -0.00007   2.05710
   R10        2.05686   0.00000   0.00000  -0.00017  -0.00017   2.05669
   R11        2.05364   0.00000   0.00000  -0.00009  -0.00009   2.05356
   R12        2.75710  -0.00001   0.00000   0.00048   0.00048   2.75758
   R13        1.91699   0.00000   0.00000   0.00013   0.00013   1.91713
   R14        1.91708   0.00000   0.00000   0.00013   0.00013   1.91721
   R15        2.05593   0.00000   0.00000   0.00001   0.00001   2.05594
   R16        2.05702   0.00000   0.00000   0.00002   0.00002   2.05704
   R17        2.06385   0.00000   0.00000   0.00001   0.00001   2.06386
    A1        2.29259  -0.00001   0.00000  -0.00032  -0.00032   2.29228
    A2        1.98761   0.00000   0.00000   0.00047   0.00047   1.98809
    A3        1.99907   0.00001   0.00000  -0.00013  -0.00013   1.99894
    A4        2.08755   0.00000   0.00000   0.00050   0.00050   2.08805
    A5        2.14555  -0.00001   0.00000  -0.00006  -0.00006   2.14549
    A6        2.05000   0.00001   0.00000  -0.00044  -0.00044   2.04956
    A7        1.98869  -0.00001   0.00000   0.00129   0.00129   1.98998
    A8        1.97985   0.00000   0.00000  -0.00089  -0.00090   1.97896
    A9        2.10802  -0.00000   0.00000  -0.00102  -0.00103   2.10699
   A10        1.71110   0.00000   0.00000   0.00140   0.00140   1.71250
   A11        1.71907   0.00001   0.00000   0.00084   0.00084   1.71991
   A12        1.90097  -0.00000   0.00000  -0.00082  -0.00083   1.90014
   A13        1.91623   0.00000   0.00000   0.00039   0.00039   1.91663
   A14        1.90986   0.00000   0.00000   0.00030   0.00030   1.91015
   A15        1.92353   0.00000   0.00000  -0.00097  -0.00097   1.92257
   A16        1.90401   0.00000   0.00000   0.00031   0.00031   1.90432
   A17        1.89749  -0.00000   0.00000  -0.00000  -0.00000   1.89749
   A18        1.91256  -0.00000   0.00000  -0.00002  -0.00002   1.91254
   A19        1.95420  -0.00001   0.00000   0.00102   0.00102   1.95522
   A20        1.83762   0.00000   0.00000   0.00016   0.00016   1.83778
   A21        1.89464   0.00000   0.00000  -0.00050  -0.00050   1.89414
   A22        1.93794   0.00001   0.00000  -0.00033  -0.00033   1.93761
   A23        1.95232   0.00000   0.00000  -0.00020  -0.00020   1.95212
   A24        1.88207  -0.00000   0.00000  -0.00016  -0.00016   1.88191
   A25        1.99004  -0.00000   0.00000   0.00044   0.00044   1.99048
   A26        1.88791   0.00000   0.00000  -0.00005  -0.00005   1.88786
   A27        1.90776  -0.00000   0.00000  -0.00010  -0.00010   1.90765
   A28        1.91215  -0.00000   0.00000  -0.00015  -0.00015   1.91199
   A29        1.87258   0.00000   0.00000  -0.00005  -0.00005   1.87254
   A30        1.89136   0.00000   0.00000  -0.00012  -0.00012   1.89124
    D1        3.11149   0.00000   0.00000  -0.00068  -0.00068   3.11081
    D2       -0.04442   0.00000   0.00000  -0.00092  -0.00092  -0.04534
    D3        0.07169  -0.00000   0.00000  -0.00100  -0.00100   0.07069
    D4       -3.08422  -0.00000   0.00000  -0.00124  -0.00124  -3.08545
    D5       -1.40020   0.00001   0.00000   0.00235   0.00235  -1.39785
    D6        2.94470   0.00000   0.00000   0.00032   0.00033   2.94503
    D7        0.64033   0.00001   0.00000   0.00387   0.00387   0.64420
    D8        1.63907   0.00001   0.00000   0.00269   0.00269   1.64176
    D9       -0.29922   0.00000   0.00000   0.00067   0.00067  -0.29854
   D10       -2.60358   0.00001   0.00000   0.00421   0.00421  -2.59937
   D11        0.61904  -0.00000   0.00000  -0.00183  -0.00183   0.61720
   D12        2.75079  -0.00000   0.00000  -0.00177  -0.00177   2.74901
   D13       -1.47642  -0.00000   0.00000  -0.00199  -0.00199  -1.47842
   D14       -2.53658  -0.00000   0.00000  -0.00206  -0.00206  -2.53864
   D15       -0.40483  -0.00000   0.00000  -0.00200  -0.00200  -0.40683
   D16        1.65115  -0.00000   0.00000  -0.00222  -0.00222   1.64892
   D17        0.14755  -0.00000   0.00000  -0.00310  -0.00310   0.14445
   D18       -1.96019  -0.00001   0.00000  -0.00336  -0.00336  -1.96355
   D19        2.31140  -0.00001   0.00000  -0.00303  -0.00303   2.30837
   D20        2.24452  -0.00000   0.00000  -0.00277  -0.00277   2.24175
   D21        0.13678  -0.00001   0.00000  -0.00303  -0.00303   0.13375
   D22       -1.87482  -0.00001   0.00000  -0.00269  -0.00269  -1.87751
   D23       -2.10799  -0.00000   0.00000  -0.00315  -0.00315  -2.11114
   D24        2.06745  -0.00000   0.00000  -0.00341  -0.00341   2.06404
   D25        0.05585  -0.00001   0.00000  -0.00307  -0.00307   0.05278
   D26       -2.94097  -0.00000   0.00000  -0.00205  -0.00205  -2.94302
   D27       -0.89247  -0.00000   0.00000  -0.00142  -0.00142  -0.89389
   D28        1.21101  -0.00000   0.00000  -0.00200  -0.00200   1.20902
   D29       -0.83997  -0.00000   0.00000  -0.00216  -0.00216  -0.84213
   D30        1.20853  -0.00000   0.00000  -0.00153  -0.00153   1.20700
   D31       -2.97117  -0.00000   0.00000  -0.00211  -0.00211  -2.97328
   D32        1.23956  -0.00000   0.00000  -0.00180  -0.00180   1.23777
   D33       -2.99512  -0.00000   0.00000  -0.00116  -0.00116  -2.99629
   D34       -0.89164  -0.00000   0.00000  -0.00174  -0.00174  -0.89338
         Item               Value     Threshold  Converged?
 Maximum Force            0.000802     0.000450     NO 
 RMS     Force            0.000089     0.000300     YES
 Maximum Displacement     0.007908     0.001800     NO 
 RMS     Displacement     0.002622     0.001200     NO 
 Predicted change in Energy= 5.178559D-06
 GradGradGradGradGradGradGradGradGradGradGradGradGradGradGradGradGradGrad

                          Input orientation:                          
 ---------------------------------------------------------------------
 Center     Atomic      Atomic             Coordinates (Angstroms)
 Number     Number       Type             X           Y           Z
 ---------------------------------------------------------------------
      1          6           0        0.911900    0.617657    0.809290
      2          6           0        2.150895   -0.041439    0.534577
      3          8           0        3.181519    0.327422    1.112064
      4          6           0       -0.362156    0.430549    0.288236
      5          6           0        0.613054    1.760857   -1.931655
      6          1           0        0.399086    2.392044   -2.792353
      7          1           0        1.121349    2.342451   -1.164909
      8          1           0        1.253592    0.937809   -2.236956
      9          7           0       -0.628036    1.233726   -1.373777
     10          1           0       -1.297144    1.977924   -1.207428
     11          1           0       -1.062989    0.557625   -1.992648
     12         17           0       -1.626509    1.294252    1.189468
     13         35           0       -1.009693   -1.362895   -0.148753
     14          1           0        1.003654    1.462642    1.479814
     15          6           0        2.269629   -1.202694   -0.431746
     16          1           0        1.609624   -1.131416   -1.293699
     17          1           0        3.303284   -1.259899   -0.768207
     18          1           0        2.025211   -2.131475    0.088272
 ---------------------------------------------------------------------
                    Distance matrix (angstroms):
                    1          2          3          4          5
     1  C    0.000000
     2  C    1.430029   0.000000
     3  O    2.308046   1.237633   0.000000
     4  C    1.389145   2.568829   3.639637   0.000000
     5  C    2.984793   3.419872   4.232726   2.765623   0.000000
     6  H    4.047624   4.478743   5.220065   3.730547   1.088568
     7  H    2.629875   3.103409   3.672771   2.822727   1.088354
     8  H    3.082023   3.073349   3.912213   3.040485   1.086695
     9  N    2.741664   3.604208   4.638265   1.864959   1.459246
    10  H    3.285933   4.359058   5.306847   2.346398   2.054381
    11  H    3.428505   4.132166   5.263846   2.389508   2.064124
    12  Cl   2.654399   4.059769   4.904883   1.776735   3.869724
    13  Br   2.921122   3.493209   4.691811   1.956197   3.945869
    14  H    1.082599   2.114685   2.483356   2.085787   3.446682
    15  C    2.587910   1.515385   2.357148   3.179961   3.711685
    16  H    2.822877   2.196274   3.222849   2.971560   3.124962
    17  H    3.425264   2.123651   2.463704   4.172426   4.209028
    18  H    3.052385   2.140849   2.903682   3.507631   4.607010
                    6          7          8          9         10
     6  H    0.000000
     7  H    1.781207   0.000000
     8  H    1.775795   1.771946   0.000000
     9  N    2.099771   2.081645   2.091212   0.000000
    10  H    2.358109   2.446180   2.940752   1.014499   0.000000
    11  H    2.478363   2.939743   2.360248   1.014543   1.639710
    12  Cl   4.600335   3.767298   4.490257   2.751515   2.514160
    13  Br   4.803421   4.393576   3.843994   2.896341   3.516319
    14  H    4.413695   2.789709   3.761954   3.295117   3.574977
    15  C    4.689727   3.797911   2.978736   3.901285   4.841476
    16  H    4.015737   3.510378   2.301779   3.256905   4.257316
    17  H    5.086082   4.230265   3.344904   4.694695   5.642726
    18  H    5.603973   4.733227   3.927160   4.527900   5.440960
                   11         12         13         14         15
    11  H    0.000000
    12  Cl   3.314519   0.000000
    13  Br   2.662929   3.038375   0.000000
    14  H    4.141021   2.651492   3.832683   0.000000
    15  C    4.079397   4.903362   3.295407   3.515788   0.000000
    16  H    3.237939   4.745791   2.867980   3.845609   1.087957
    17  H    4.885385   5.887192   4.358452   4.213564   1.088541
    18  H    4.593307   5.126723   3.139672   3.987184   1.092150
                   16         17         18
    16  H    0.000000
    17  H    1.777958   0.000000
    18  H    1.755754   1.768239   0.000000
 Stoichiometry    C5H9BrClNO
 Framework group  C1[X(C5H9BrClNO)]
 Deg. of freedom    48
 Full point group                 C1      NOp   1
 Largest Abelian subgroup         C1      NOp   1
 Largest concise Abelian subgroup C1      NOp   1
                         Standard orientation:                         
 ---------------------------------------------------------------------
 Center     Atomic      Atomic             Coordinates (Angstroms)
 Number     Number       Type             X           Y           Z
 ---------------------------------------------------------------------
      1          6           0       -0.912679    0.616664   -0.809151
      2          6           0       -2.151365   -0.043412   -0.535397
      3          8           0       -3.181970    0.325122   -1.113126
      4          6           0        0.361264    0.430077   -0.287636
      5          6           0       -0.615822    1.758400    1.932620
      6          1           0       -0.402656    2.389205    2.793797
[...]
 2,0.0685903,0.016425,-0.0209552,-0.0184216,0.057905,-0.0974347,0.07987
 81,-0.0232325,-0.0276777,-0.006175,0.0608069,0.0590821,0.0283678,-0.05
 54256,-0.0478227,0.1474002,-0.7660859,0.0501026,-0.2512479,0.1097435,-
 0.7309005,0.3624756,-0.9065889,0.5835682,-1.4577234,0.2381619,-0.06726
 11,0.0656139,0.0006618,0.1787365,0.0235799,-0.111381,0.0537244,0.18473
 91,0.1982219,-0.0078717,0.0099348,0.0116649,0.1485952,0.0291427,0.0097
 335,-0.0420098,0.2313785,-0.4734662,0.2936581,0.2060409,0.3508566,-0.6
 212344,-0.2743732,0.0981044,-0.1834963,-0.3512218,-0.362324,-0.3595864
 ,0.0569426,-0.4021189,-0.7980842,0.0888439,-0.1711157,-0.0525614,-0.19
 52782,-0.0052462,-0.0502323,-0.0362603,0.0376188,-0.0397887,-0.0927358
 ,-0.0401463,-0.0443018,0.1144022,0.057313,-0.0367797,-0.0023949,0.0157
 55,-0.3583016,-0.2269318,-0.0064665,-0.206003,-0.0572196,0.0047307,0.0
 352353,-0.1333423,0.0800791,0.0402896,0.0655328,-0.1066642,-0.0136662,
 -0.0549195,-0.1218309,0.0873946,0.0732943,0.0255018,0.0779876,-0.02268
 54,0.0461494,-0.0501684,0.0799163,0.0753595,-0.0591694,0.0426262,-0.03
 14431,-0.0065532,0.03255,0.0761295,0.0498899,0.0195015\Polar=183.05334
 64,-7.4499622,150.8909747,14.7494232,-1.3591927,133.5583614\Quadrupole
 =-14.2538447,7.1806703,7.0731743,-1.8438009,-4.1052978,-3.7471\PG=C01 
 [X(C5H9Br1Cl1N1O1)]\NImag=1\\0.64836713,-0.03571427,0.49893548,0.12155
 290,0.22353637,0.26451315,-0.12051705,0.07479248,0.02681535,0.74377718
 ,0.06095740,-0.16926255,-0.04639370,0.01545468,0.47049916,0.03473272,-
 0.04914737,-0.08694467,0.14793148,0.17112110,0.38211481,-0.11700928,0.
 01624269,-0.01991473,-0.48099930,-0.12002596,-0.19024292,0.58771599,0.
 01915385,0.02201819,0.00681270,-0.09518492,-0.12549112,-0.06220310,0.1
 1455937,0.10965424,-0.02405263,0.00545251,0.01949001,-0.17485530,-0.06
 816516,-0.16706264,0.22753355,0.08781889,0.15119745,-0.29392555,-0.044
 16343,-0.08521293,-0.08177957,0.02376289,-0.00870179,0.03685039,0.0050
 5203,0.01249923,0.49249570,-0.01438260,-0.08078759,-0.01969033,0.00843
 039,0.00131334,0.01384277,0.00539279,0.00086227,-0.00274388,0.01330657
 ,0.23616606,-0.02809830,-0.03986445,-0.07961653,-0.04152400,0.03073867
 ,-0.00132938,0.02917295,-0.00305380,0.01192610,0.02753529,0.08355387,0
 .07212837,-0.00536679,0.00376657,-0.00328951,0.00483508,-0.00183234,-0
 .00049584,-0.00278854,-0.00049687,-0.00046995,0.00480180,-0.00523691,0
 .01507836,0.56634859,-0.00681940,0.00317517,-0.00197112,0.00526943,-0.
 00237630,-0.00025661,-0.00336177,-0.00022147,-0.00075540,0.00240004,-0
 .00884217,0.02077236,-0.05929746,0.53587086,-0.00093008,0.00106251,-0.
 00146175,0.00183788,-0.00091215,-0.00013677,-0.00108678,-0.00008292,-0
 .00019007,0.01041118,0.01145004,0.00222515,0.00339861,0.01904835,0.600
 27812,0.00261016,-0.00006137,0.00040324,-0.00115671,0.00056633,0.00010
 762,0.00075537,0.00006723,0.00014919,-0.00289406,0.00155707,-0.0063648
 7,-0.04627289,0.00058762,0.00618766,0.04840538,0.00210330,0.00016442,-
 0.00001000,-0.00127701,0.00080321,-0.00002373,0.00093213,-0.00004273,0
 .00022956,-0.00337187,0.00010923,-0.00766788,-0.00042207,-0.05422365,0
 .03866881,0.00697167,0.06200961,-0.00003143,0.00009490,0.00001621,0.00
 031892,-0.00016888,0.00002695,-0.00020479,0.00002185,-0.00005912,0.000
 26481,-0.00073869,0.00196807,0.00904260,0.04440724,-0.31736806,-0.0114
 9534,-0.05098350,0.33721763,0.00051550,0.00009893,-0.00018195,-0.00011
 089,-0.00002160,0.00006801,0.00013831,-0.00000514,0.00004321,-0.000434
 78,0.00025162,-0.00086521,-0.10377966,0.09716615,0.05845452,-0.0003975
 4,-0.00016984,-0.00081800,0.10445019,0.00047362,-0.00011159,0.00041796
 ,-0.00041718,0.00020690,-0.00005242,0.00026060,0.00003773,0.00006863,0
 .00014448,-0.00024219,-0.00267694,0.08714352,-0.21175962,-0.09710965,-
 0.00273257,0.00634403,0.00266286,-0.09310739,0.23780166,0.00042453,-0.
 00028713,-0.00005823,-0.00030764,0.00013988,0.00006188,0.00023055,-0.0
 0001799,0.00005644,-0.00067940,0.00050177,-0.00019432,0.05623940,-0.10
 328169,-0.11204243,0.01370784,-0.02432652,-0.01179262,-0.06202948,0.10
 834117,0.11332353,0.00164155,0.00018967,-0.00000786,-0.00063211,0.0003
 8853,-0.00010642,0.00020737,0.00011247,0.00000146,-0.00124438,0.001969
 89,-0.00389042,-0.27442569,0.03980679,-0.08570605,0.00306571,0.0005186
 0,0.00098375,-0.00915439,0.00133020,-0.00452710,0.30365966,0.00115421,
 0.00038134,-0.00044813,0.00069539,-0.00051826,0.00054274,-0.00020417,-
 0.00004580,-0.00008566,-0.00209765,0.00023749,-0.00190051,0.04705184,-
 0.05923282,0.01607647,0.00451283,-0.00095360,0.00055755,0.02142809,-0.
 00173103,0.01049936,-0.03599928,0.06275828,0.00055783,-0.00125522,0.00
 000415,-0.00227121,0.00129997,-0.00023376,0.00125490,0.00003457,0.0003
 5982,0.00158858,0.00159385,-0.00075454,-0.08971933,0.01480685,-0.08195
 880,-0.02913841,0.00513324,-0.00874957,0.01542273,-0.00140228,0.006377
 49,0.09506088,-0.01776942,0.08290518,-0.02000542,0.00747103,-0.0211937
 6,0.01396662,-0.00757790,-0.00157484,-0.00960141,-0.00038581,-0.001756
 99,-0.03118098,-0.00879072,0.01777678,-0.13909682,-0.06165451,0.022258
 38,-0.00423221,-0.00492947,0.00157053,0.00933786,0.01077853,-0.0041557
 0,-0.02301526,-0.03431265,0.00722197,0.71855679,0.01062155,0.00008822,
 0.00604362,-0.00806835,0.00442796,0.00030292,0.00474937,0.00022186,0.0
 0106399,-0.00553797,-0.02003769,-0.02683228,-0.04861801,-0.18557116,0.
 02815811,-0.01094193,-0.01412773,0.00314274,-0.02151551,-0.02915554,0.
 00734950,-0.00438497,0.00328637,-0.00313504,-0.05170063,0.61161877,-0.
 04418093,0.01481188,-0.01592454,0.02756397,-0.01506845,-0.00299087,-0.
 01684044,-0.00002472,-0.00317042,0.02295917,-0.03036595,0.05751250,0.0
 0418322,-0.00307588,-0.08910886,0.02517441,0.03611265,-0.00214253,-0.0
 1120498,-0.01269871,0.00448340,-0.00163787,-0.00868982,0.00379186,-0.0
 3419308,0.15893064,0.28605560,0.00291499,-0.00061802,0.00075674,-0.001
 83108,0.00098663,0.00005985,0.00128403,0.00004116,0.00029353,-0.000718
 05,0.00191281,-0.00622801,-0.01422014,0.00303024,-0.00410403,0.0001223
 5,0.00019972,0.00022059,0.00124793,0.00039778,-0.00022235,0.00017683,-
 0.00269940,0.00102319,-0.41508472,0.05315443,-0.04801935,0.43533738,0.
 00093394,-0.00020692,0.00100463,-0.00089198,0.00036598,-0.00013541,0.0
 0065386,0.00009872,0.00016399,0.00266551,0.00078631,-0.00143283,-0.033
 55309,0.00516018,-0.00633655,0.00014303,0.00021628,0.00032696,0.000314
 15,0.00064898,-0.00066403,-0.00333015,-0.00500766,0.00168059,0.0586557
 9,-0.06844434,0.00214454,-0.05498100,0.07072237,-0.00507892,0.00129321
 ,-0.00450192,0.00367948,-0.00220190,-0.00035628,-0.00264831,-0.0000264
 3,-0.00052488,-0.01138533,-0.00075236,0.00603178,0.01146539,0.00066307
 ,0.00009022,0.00056968,0.00018654,-0.00007564,-0.00108547,-0.00019398,
 0.00035754,-0.00103989,0.00193140,-0.00123226,-0.07988206,0.00517786,-
 0.04727144,0.05953577,-0.00410353,0.04487769,-0.00162942,0.00047370,-0
 .00006668,0.00066091,-0.00112255,-0.00071262,-0.00024499,0.00032245,0.
 00012865,0.00182377,-0.00188712,0.00148950,0.00802932,-0.01839978,-0.0
 1283935,0.00056256,0.00045449,0.00018441,-0.00175597,-0.00369427,0.000
 70626,0.00011867,0.00006495,-0.00040416,-0.09948952,0.08745926,0.06084
 089,-0.00889815,0.02984309,0.02348340,0.10205555,0.00247367,-0.0012383
 9,-0.00009167,-0.00163772,0.00154135,0.00034325,0.00088425,-0.00031492
 ,0.00004798,-0.00416968,0.00654366,-0.00356886,0.00920365,-0.02347784,
 -0.01585418,0.00071138,0.00094405,0.00034544,-0.00423162,-0.00266111,0
 .00161872,-0.00027779,0.00068602,-0.00042343,0.09230166,-0.27501184,-0
 .15524002,-0.00066126,-0.00303461,-0.00335242,-0.09416028,0.29779658,-
 0.00163517,0.00152143,0.00024404,-0.00004797,-0.00046518,-0.00075816,0
 .00006333,0.00014687,0.00018260,0.00530764,-0.01010351,-0.00402009,-0.
 00345569,0.01145962,0.00455238,-0.00048256,0.00061770,0.00085277,0.001
 83866,0.00193673,0.00018458,0.00035342,-0.00073752,0.00033571,0.075047
 59,-0.18471585,-0.15958278,-0.00450146,0.00756162,0.00354656,-0.073091
 99,0.17231624,0.15750717,-0.03674631,0.02981938,0.01460006,0.00601239,
 -0.00607211,0.00077437,-0.00586844,0.00075838,-0.00181809,-0.07191329,
 0.03481092,0.01860829,0.00010875,0.00043236,0.00071272,-0.00005823,-0.
 00035314,-0.00007680,-0.00007496,-0.00038222,0.00056857,-0.00006291,0.
 00009255,-0.00009363,-0.00178275,0.00441656,0.00802384,-0.00002493,0.0
 0029660,0.00096155,0.00062527,-0.00100339,0.00096125,0.10583867,0.0171
 7344,-0.00819839,-0.00763791,-0.00429942,0.00712785,-0.00311690,0.0038
 0330,-0.00087737,0.00193729,0.04491845,-0.07317679,-0.02438264,-0.0004
 7880,-0.00088041,0.00006667,0.00002103,0.00074269,0.00014571,-0.000295
 62,0.00078679,0.00051767,0.00004304,-0.00005402,0.00012051,0.00310910,
 -0.00185247,-0.00735780,0.00016270,-0.00039180,-0.00060271,-0.00034981
 ,0.00101416,-0.00068098,-0.06734039,0.10819782,-0.00224612,-0.00135663
 ,0.00407728,-0.00037671,-0.00204797,0.00390288,-0.00006399,0.00039169,
 -0.00091408,0.02981262,-0.02763207,-0.04231907,-0.00040819,-0.00156786
 ,-0.00172960,0.00024061,0.00073602,0.00010974,0.00032514,0.00036219,-0
 .00067583,0.00024260,0.00002364,-0.00013259,0.01379305,-0.01480201,-0.
 02449781,0.00086896,-0.00076658,-0.00008932,-0.00001939,0.00284268,-0.
 00436922,-0.04284528,0.05097524,0.06874577,-0.01129994,-0.02199926,-0.
 00648299,0.00567492,-0.00090929,-0.00227758,-0.00348149,-0.00016405,-0
 .00075477,-0.04257404,-0.01729320,-0.00878980,0.00153646,0.00069758,0.
 00167667,-0.00044398,-0.00068662,0.00003631,0.00001855,-0.00018915,0.0
 0000011,-0.00022124,0.00021481,-0.00047778,0.00191399,-0.00926812,0.00
 662493,-0.00039525,-0.00048918,0.00132024,-0.00015141,-0.00053392,-0.0
 0001402,0.00559855,0.00546714,0.00107409,0.05913109,-0.01422886,-0.009
 42261,-0.00501239,0.00648361,-0.00143482,-0.00255157,-0.00339216,0.000
 24488,-0.00057055,-0.02752202,-0.06268720,-0.01427950,0.00276540,0.001
 73273,0.00527153,-0.00122656,-0.00171988,0.00011724,0.00021352,-0.0001
 4830,-0.00028884,-0.00040502,0.00039020,-0.00071549,-0.00646491,-0.023
 76122,0.01471520,-0.00049450,-0.00092204,0.00117551,-0.00050340,-0.001
 06424,0.00043505,-0.00032532,-0.03160857,-0.00969667,0.04521190,0.1308
 3797,-0.01124273,-0.00615654,0.00131359,0.00555934,-0.00212918,-0.0016
 4618,-0.00337550,0.00018765,-0.00085521,-0.00009846,-0.00507578,-0.020
 47893,-0.00142973,0.00002059,-0.00322788,0.00063069,0.00109330,-0.0000
 9785,0.00003006,0.00024500,-0.00003238,0.00000669,-0.00003572,-0.00010
 767,0.00781429,0.01849985,-0.00577713,0.00006268,0.00021380,-0.0000459
 3,0.00022667,0.00065076,0.00076595,-0.00091261,-0.01291501,-0.00063372
 ,0.00142957,0.00696077,0.02787893,-0.05970356,-0.04953763,-0.03870871,
 0.00489426,0.02163888,0.01235548,0.00167489,-0.00120005,0.00107759,-0.
 01008122,-0.02015171,-0.01551525,0.00020331,0.00010627,-0.00012637,-0.
 00007683,0.00001656,0.00001721,0.00001265,0.00003764,0.00001459,-0.000
 09397,0.00008210,-0.00006741,-0.00007921,-0.00051258,0.00115091,0.0000
 6549,-0.00007042,-0.00008920,-0.00007931,-0.00001388,0.00005929,-0.001
 36019,-0.00141851,-0.00032855,-0.00422107,-0.00262980,-0.00148108,0.07
 246593,-0.05114815,-0.24274460,-0.13791695,-0.00697974,-0.01406210,-0.
 01195578,-0.00099962,0.00185981,0.00317216,0.00134274,0.00112313,-0.00
 263309,-0.00021952,0.00009929,0.00029470,-0.00003822,-0.00014657,0.000
 04287,-0.00006256,-0.00003176,-0.00003099,0.00013989,-0.00016122,0.000
 31693,0.00207784,-0.00095049,0.00212112,-0.00020353,-0.00017731,0.0006
 0530,0.00003584,-0.00011263,-0.00009283,0.00369452,-0.00014145,0.00186
 567,-0.00195606,-0.00138164,-0.00157875,0.05106190,0.25659588,-0.04041
 025,-0.13594711,-0.10588386,-0.00030092,-0.00803729,-0.00067957,-0.000
 80210,0.00320226,-0.00218538,-0.00156386,-0.01297037,-0.00028201,-0.00
 034529,-0.00041309,-0.00000890,0.00036042,0.00028245,0.00008608,0.0000
 0759,0.00010741,-0.00003209,0.00026519,0.00008646,-0.00052828,-0.00319
 319,0.00115276,-0.00279186,0.00028112,0.00032482,-0.00093391,0.0000616
 5,0.00013159,0.00025454,0.00015046,0.00274837,-0.00102790,0.00359896,0
 .00411502,0.00265597,0.04131743,0.14733236,0.10900683,0.01211538,0.018
 66038,0.01011914,-0.08767925,0.01745306,0.01048196,-0.01190378,-0.0379
 6296,-0.03272459,-0.00077499,-0.00036907,-0.00037164,0.00003249,0.0002
 0611,-0.00010706,-0.00001882,-0.00000744,-0.00000188,0.00000134,-0.000
 03024,0.00000310,-0.00002693,0.00003430,-0.00001436,0.00045299,-0.0001
 7937,0.00046344,-0.00002532,-0.00006775,0.00008922,-0.00048331,0.00021
 641,0.00007500,-0.00029090,-0.00034851,0.00007158,-0.00482491,0.001053
 12,0.00105143,-0.00368323,0.00355193,0.00030781,0.60152031,0.00586021,
 -0.00926299,-0.01473069,0.00832265,-0.15410986,-0.04406251,-0.01784473
 ,-0.00425098,-0.02499307,-0.00392236,-0.00016347,-0.00376311,0.0002223
 3,0.00033671,0.00009462,-0.00009912,-0.00009122,0.00002443,-0.00005450
 ,-0.00001846,-0.00003910,-0.00005625,-0.00004959,-0.00016488,0.0005597
 3,-0.00016071,0.00229533,-0.00014570,0.00003726,0.00002103,0.00026571,
 -0.00047767,0.00014476,0.00065529,-0.00052411,0.00044361,0.00185590,0.
 00002221,0.00006278,0.00162507,0.00075836,-0.00164966,-0.01002176,0.48
 228670,-0.00225566,-0.00998707,0.00564102,0.00700835,-0.05064640,-0.12
 046880,-0.02110694,-0.03017966,-0.00394874,0.00043484,0.00010165,0.000
 59329,0.00006929,0.00017324,-0.00005753,-0.00001133,-0.00000670,0.0000
 2720,-0.00002847,-0.00003751,-0.00000641,0.00000314,-0.00001140,0.0000
 1231,-0.00002556,-0.00021450,0.00012139,0.00001330,-0.00001123,-0.0002
 2660,-0.00058255,0.00045890,-0.00036541,-0.00003801,0.00031705,-0.0005
 3193,0.00163995,0.00005908,-0.00044399,-0.00020332,-0.00099201,0.00208
 914,0.00818038,-0.02869735,0.52784595,-0.00075878,0.00038350,0.0002359
 1,-0.00260082,-0.00062364,0.00088791,0.00066768,-0.00220823,-0.0020976
 9,-0.00000883,0.00046751,0.00135273,0.00014145,0.00001566,-0.00004524,
 0.00000751,-0.00001103,0.00000893,-0.00002935,-0.00004124,0.00002066,0
 .00000354,0.00001284,0.00001365,-0.00051087,0.00030522,-0.00027822,0.0
 0000374,-0.00016196,0.00005904,-0.00142636,0.00099310,-0.00061969,0.00
 009928,-0.00011933,-0.00013305,-0.00293528,0.00032141,0.00145454,0.000
 05135,-0.00014061,-0.00000821,-0.13263890,0.02838876,-0.12568579,0.146
 20227,0.00166682,-0.00078348,0.00141550,-0.01789557,0.01050405,-0.0201
 7453,-0.00200296,-0.00695066,-0.00240272,-0.00026232,0.00006845,-0.001
 63831,-0.00007919,0.00002770,0.00014542,-0.00002102,-0.00000259,-0.000
 01569,-0.00000164,0.00005121,-0.00002903,-0.00003920,-0.00004300,-0.00
 002974,0.00037548,-0.00060009,0.00052121,-0.00000706,0.00021590,0.0000
 5310,0.00133960,-0.00108787,0.00070817,-0.00001075,-0.00002549,0.00003
 223,0.00103016,-0.00008150,-0.00018270,-0.00026957,0.00005637,0.000357
 56,0.02783680,-0.05027984,0.03085210,-0.02981905,0.05463626,0.00181144
 ,-0.00125420,0.00102198,-0.01031875,0.01085497,-0.01076583,-0.00112386
 ,-0.00491187,-0.00166637,-0.00101448,-0.00118726,-0.00147796,0.0000624
 3,-0.00009042,-0.00000685,-0.00000801,0.00000479,-0.00002040,0.0000123
 0,0.00001104,0.00000512,0.00000596,-0.00003263,-0.00001938,0.00018007,
 0.00020821,0.00054144,-0.00000925,-0.00002581,0.00017225,0.00009350,0.
 00011551,0.00039775,0.00011933,0.00006775,-0.00001337,0.00007996,0.000
 52022,0.00038671,-0.00006444,-0.00009331,0.00027170,-0.12371140,0.0315
 2283,-0.22753740,0.13765645,-0.03610874,0.24242996,0.00030698,-0.00027
 277,-0.00000056,-0.00040616,-0.00173498,-0.00242599,0.00226942,-0.0016
 8331,-0.00114872,0.00051162,-0.00064056,-0.00005859,-0.00007022,-0.000
 08097,-0.00002860,0.00001318,0.00002890,-0.00001365,0.00000821,0.00001
 850,0.00000163,-0.00000093,-0.00001996,0.00002476,-0.00006118,0.000078
 62,-0.00016854,0.00002246,0.00003120,0.00000953,0.00017282,-0.00014097
 ,0.00017902,-0.00011815,0.00012955,0.00004337,-0.00087169,0.00030074,0
 .00023747,0.00005482,0.00001197,0.00010589,-0.28547949,0.06801684,0.07
 266918,-0.01308480,0.00338565,0.00557911,0.30630388,-0.00248684,-0.003
 03310,-0.00277207,0.02906126,-0.01137105,-0.00967268,-0.00041290,0.003
 33903,0.00365170,-0.00100422,-0.00033040,-0.00040915,0.00004359,0.0000
 7200,0.00000128,-0.00000596,-0.00001226,0.00001042,-0.00000429,-0.0000
 0698,-0.00000212,-0.00000131,0.00002714,-0.00003781,0.00014058,-0.0000
 2186,0.00031793,-0.00002989,-0.00002882,0.00002505,-0.00008422,0.00000
 218,-0.00006241,0.00026339,0.00002008,0.00002226,-0.00067966,0.0004119
 4,0.00010823,0.00105485,-0.00081728,-0.00027250,0.06412881,-0.06137275
 ,-0.01926713,0.00401610,-0.00232850,-0.00143232,-0.07121240,0.06751680
 ,-0.00085356,-0.00287695,-0.00083245,0.01969304,-0.00403512,-0.0063693
 5,-0.00074981,0.00179058,0.00139680,-0.00135751,-0.00012190,-0.0012202
 9,0.00001082,0.00002655,0.00006250,-0.00000788,-0.00001230,-0.00000023
 ,0.00000816,0.00001676,-0.00001256,-0.00000214,-0.00000460,-0.00003405
 ,0.00013261,-0.00012569,0.00039472,-0.00001988,0.00004398,0.00008242,0
 .00027895,-0.00025306,0.00021774,0.00019825,-0.00000414,0.00000873,-0.
 00012727,0.00020270,0.00047150,0.00059591,-0.00072097,0.00029079,0.068
 99708,-0.01933112,-0.06954708,-0.02409818,0.00661567,0.00930042,-0.077
 15843,0.02412471,0.07044353,-0.00150957,0.00046842,0.00057635,-0.00210
 841,-0.00128807,-0.00086143,0.00033378,-0.00077559,-0.00204768,0.00104
 647,0.00065234,0.00069217,-0.00001650,-0.00010436,0.00003593,0.0000090
 7,0.00000314,-0.00000618,0.00000699,0.00000940,0.00000444,0.00000449,-
 0.00001080,0.00001782,-0.00008791,-0.00005759,-0.00046136,0.00002244,0
 .00000836,0.00003587,0.00010957,0.00004638,-0.00003666,0.00001816,-0.0
 0017737,-0.00005073,-0.00245325,0.00084283,0.00003669,-0.00004411,-0.0
 0016863,0.00016730,-0.08629269,-0.08362807,0.05991919,0.00681716,0.014
 77385,-0.00935037,-0.00957078,-0.02278688,0.01445986,0.09371509,0.0022
 0809,0.00028938,-0.00255581,-0.01185800,-0.01816373,0.01719982,0.00076
 591,-0.00014169,-0.00389025,-0.00154120,-0.00094242,-0.00096155,0.0000
 3735,0.00011081,-0.00004307,-0.00001144,-0.00001329,0.00000655,-0.0000
 0275,-0.00001071,-0.00000063,-0.00000509,0.00003015,-0.00005320,0.0003
 4687,0.00005197,0.00055086,-0.00004511,-0.00003847,0.00010123,-0.00005
 765,-0.00004688,0.00001010,0.00024737,-0.00015851,0.00017456,-0.000308
 97,0.00059209,0.00003094,0.00018087,0.00023422,-0.00055105,-0.08415382
 ,-0.20267959,0.10808895,-0.00177901,-0.00337693,0.00183125,0.00378395,
 0.00793383,-0.00533510,0.09219264,0.21632979,0.00193635,0.00035987,-0.
 00109747,-0.01040533,-0.01388321,0.01363576,-0.00009510,0.00009343,-0.
 00403232,-0.00079961,0.00033815,-0.00069214,0.00006340,0.00003419,0.00
 008914,-0.00002295,-0.00003443,0.00000136,0.00000319,0.00000173,-0.000
 00311,-0.00000535,-0.00000221,-0.00003562,0.00017991,-0.00020482,0.000
 35734,-0.00001140,0.00001102,0.00009972,0.00022285,-0.00008741,0.00005
 387,0.00010574,-0.00019817,0.00009007,0.00144342,-0.00045732,-0.000125
 79,-0.00000408,0.00026357,-0.00030126,0.05709079,0.10282210,-0.1131964
 2,0.01127625,0.01988049,-0.01301979,0.00215313,0.00566660,-0.00465313,
 -0.06313120,-0.11460359,0.12282979\\0.00000366,-0.00000131,-0.00000039
 ,0.00000048,-0.00000371,-0.00000388,0.00000258,-0.00000728,-0.00000655
 ,0.00000241,0.00000196,0.00000120,0.00000145,0.00000176,0.00000174,-0.
 00000056,0.00000175,0.00000159,0.00000493,0.00000255,0.00000293,0.0000
 0182,-0.00000112,-0.00000139,-0.00000021,0.00000397,0.00000385,-0.0000
 0098,0.00000628,0.00000568,-0.00000441,0.00000277,0.00000237,0.0000071
 9,0.00000484,0.00000544,-0.00000262,0.00000477,0.00000407,0.00000715,-
 0.00000230,-0.00000084,-0.00000468,-0.00000388,-0.00000381,-0.00000656
 ,-0.00000230,-0.00000219,-0.00000620,-0.00000613,-0.00000658,-0.000005
 45,-0.00000261,-0.00000324\\\@


 THE GREAT THING ABOUT BEING IMPERFECT IS THE JOY IT BRINGS OTHERS.
   -- SIGN OUTSIDE LAKE AGASSIZ JR. HIGH SCHOOL, FARGO, N.D.
 Job cpu time:       0 days  3 hours  2 minutes 20.0 seconds.
 Elapsed time:       0 days  0 hours 11 minutes 34.6 seconds.
 File lengths (MBytes):  RWF=    299 Int=      0 D2E=      0 Chk=     19 Scr=      1
 Normal termination of Gaussian 16 at Sat Feb 27 21:43:31 2021.
