 Entering Gaussian System, Link 0=g16
 Initial command:
 /apps/gaussian/16/A.03/g16/l1.exe "/beegfs/scratch/user/q/tla25/Gau-86221.inp" -scrdir="/beegfs/scratch/user/q/tla25/"
 Entering Link 1 = /apps/gaussian/16/A.03/g16/l1.exe PID=     86222.
  
 Copyright (c) 1988,1990,1992,1993,1995,1998,2003,2009,2016,
            Gaussian, Inc.  All Rights Reserved.
  
 This is part of the Gaussian(R) 16 program.  It is based on
 the Gaussian(R) 09 system (copyright 2009, Gaussian, Inc.),
 the Gaussian(R) 03 system (copyright 2003, Gaussian, Inc.),
 the Gaussian(R) 98 system (copyright 1998, Gaussian, Inc.),
 the Gaussian(R) 94 system (copyright 1995, Gaussian, Inc.),
 the Gaussian 92(TM) system (copyright 1992, Gaussian, Inc.),
 the Gaussian 90(TM) system (copyright 1990, Gaussian, Inc.),
 the Gaussian 88(TM) system (copyright 1988, Gaussian, Inc.),
 the Gaussian 86(TM) system (copyright 1986, Carnegie Mellon
 University), and the Gaussian 82(TM) system (copyright 1983,
 Carnegie Mellon University). Gaussian is a federally registered
 trademark of Gaussian, Inc.
  
 This software contains proprietary and confidential information,
 including trade secrets, belonging to Gaussian, Inc.
  
 This software is provided under written license and may be
 used, copied, transmitted, or stored only in accord with that
 written license.
  
 The following legend is applicable only to US Government
 contracts under FAR:
  
                    RESTRICTED RIGHTS LEGEND
  
 Use, reproduction and disclosure by the US Government is
 subject to restrictions as set forth in subparagraphs (a)
 and (c) of the Commercial Computer Software - Restricted
 Rights clause in FAR 52.227-19.
  
 Gaussian, Inc.
 340 Quinnipiac St., Bldg. 40, Wallingford CT 06492
  
  
 ---------------------------------------------------------------
 Warning -- This program may not be used in any manner that
 competes with the business of Gaussian, Inc. or will provide
 assistance to any competitor of Gaussian, Inc.  The licensee
 of this program is prohibited from giving any competitor of
 Gaussian, Inc. access to this program.  By using this program,
 the user acknowledges that Gaussian, Inc. is engaged in the
 business of creating and licensing software in the field of
 computational chemistry and represents and warrants to the
 licensee that it is not a competitor of Gaussian, Inc. and that
 it will not use this program in any manner prohibited above.
 ---------------------------------------------------------------
  

 Cite this work as:
 Gaussian 16, Revision A.03,
 M. J. Frisch, G. W. Trucks, H. B. Schlegel, G. E. Scuseria, 
 M. A. Robb, J. R. Cheeseman, G. Scalmani, V. Barone, 
 G. A. Petersson, H. Nakatsuji, X. Li, M. Caricato, A. V. Marenich, 
 J. Bloino, B. G. Janesko, R. Gomperts, B. Mennucci, H. P. Hratchian, 
 J. V. Ortiz, A. F. Izmaylov, J. L. Sonnenberg, D. Williams-Young, 
 F. Ding, F. Lipparini, F. Egidi, J. Goings, B. Peng, A. Petrone, 
 T. Henderson, D. Ranasinghe, V. G. Zakrzewski, J. Gao, N. Rega, 
 G. Zheng, W. Liang, M. Hada, M. Ehara, K. Toyota, R. Fukuda, 
 J. Hasegawa, M. Ishida, T. Nakajima, Y. Honda, O. Kitao, H. Nakai, 
 T. Vreven, K. Throssell, J. A. Montgomery, Jr., J. E. Peralta, 
 F. Ogliaro, M. J. Bearpark, J. J. Heyd, E. N. Brothers, K. N. Kudin, 
 V. N. Staroverov, T. A. Keith, R. Kobayashi, J. Normand, 
 K. Raghavachari, A. P. Rendell, J. C. Burant, S. S. Iyengar, 
 J. Tomasi, M. Cossi, J. M. Millam, M. Klene, C. Adamo, R. Cammi, 
 J. W. Ochterski, R. L. Martin, K. Morokuma, O. Farkas, 
 J. B. Foresman, and D. J. Fox, Gaussian, Inc., Wallingford CT, 2016.
 
 ******************************************
 Gaussian 16:  ES64L-G16RevA.03 25-Dec-2016
                28-Feb-2021 
 ******************************************
 %nprocshared=16
 Will use up to   16 processors via shared memory.
 %mem=48GB
 ----------------------------------------------------------------------
 # wB97XD def2tzvp, opt=(ts, noeigen, calcfc, maxcycles=70, maxstep=8),
  freq=noraman, scrf=(iefpcm, solvent=water)
 ----------------------------------------------------------------------
 1/5=1,6=70,8=8,10=4,11=1,18=20,26=3,38=1/1,3;
 2/9=110,12=2,17=6,18=5,40=1/2;
 3/5=44,7=101,11=2,25=1,30=1,70=2201,71=2,72=1,74=-58,140=1/1,2,3;
 4//1;
 5/5=2,38=5,53=1/2;
 8/6=4,10=90,11=11/1;
 11/6=1,8=1,9=11,15=111,16=1/1,2,10;
 10/6=1,13=1/2;
 6/7=2,8=2,9=2,10=2,28=1/1;
 7/10=1,18=20,25=1/1,2,3,16;
 1/5=1,6=70,8=8,10=4,11=1,18=20,26=3/3(2);
 2/9=110/2;
 99//99;
 2/9=110/2;
 3/5=44,7=101,11=2,25=1,30=1,70=2205,71=1,72=1,74=-58/1,2,3;
 4/5=5,16=3,69=1/1;
 5/5=2,38=5,53=1/2;
 7//1,2,3,16;
 1/5=1,6=70,8=8,11=1,18=20,26=3/3(-5);
 2/9=110/2;
 6/7=2,8=2,9=2,10=2,19=2,28=1/1;
 99/9=1/99;
 ------------------------
 1_iteration/TS-993-1.out
 ------------------------
 Symbolic Z-matrix:
 Charge =  0 Multiplicity = 1
 C                     0.82686  -0.05641  -0.29052 
 C                     1.58947   1.08147  -0.70314 
 O                     2.80515   1.18189  -0.62901 
 C                    -0.55566  -0.12595  -0.29652 
 C                    -0.56526   1.50777   2.04892 
 H                    -0.80018   1.68464   3.09846 
 H                     0.51348   1.38665   1.94617 
 H                    -0.88465   2.36646   1.46093 
 N                    -1.22035   0.31101   1.5475 
 H                    -2.22898   0.40344   1.5107 
 H                    -0.99359  -0.50496   2.10432 
 Cl                   -1.34036  -1.68907  -0.40544 
 Cl                   -1.44016   1.0959   -1.17415 
 Cl                    1.70585  -1.36631   0.4417 
 H                     0.992     1.90145  -1.12939 
 
 Add virtual bond connecting atoms N9         and C4         Dist= 3.80D+00.

 GradGradGradGradGradGradGradGradGradGradGradGradGradGradGradGradGradGrad
 Berny optimization.
 Initialization pass.
                           ----------------------------
                           !    Initial Parameters    !
                           ! (Angstroms and Degrees)  !
 --------------------------                            --------------------------
 ! Name  Definition              Value          Derivative Info.                !
 --------------------------------------------------------------------------------
 ! R1    R(1,2)                  1.4306         calculate D2E/DX2 analytically  !
 ! R2    R(1,4)                  1.3843         calculate D2E/DX2 analytically  !
 ! R3    R(1,14)                 1.7391         calculate D2E/DX2 analytically  !
 ! R4    R(2,3)                  1.2221         calculate D2E/DX2 analytically  !
 ! R5    R(2,15)                 1.1005         calculate D2E/DX2 analytically  !
 ! R6    R(4,9)                  2.0083         calculate D2E/DX2 analytically  !
 ! R7    R(4,12)                 1.7524         calculate D2E/DX2 analytically  !
 ! R8    R(4,13)                 1.7451         calculate D2E/DX2 analytically  !
 ! R9    R(5,6)                  1.09           calculate D2E/DX2 analytically  !
 ! R10   R(5,7)                  1.0904         calculate D2E/DX2 analytically  !
 ! R11   R(5,8)                  1.0886         calculate D2E/DX2 analytically  !
 ! R12   R(5,9)                  1.4535         calculate D2E/DX2 analytically  !
 ! R13   R(9,10)                 1.0135         calculate D2E/DX2 analytically  !
 ! R14   R(9,11)                 1.0135         calculate D2E/DX2 analytically  !
 ! A1    A(2,1,4)              124.827          calculate D2E/DX2 analytically  !
 ! A2    A(2,1,14)             116.8136         calculate D2E/DX2 analytically  !
 ! A3    A(4,1,14)             117.9539         calculate D2E/DX2 analytically  !
 ! A4    A(1,2,3)              125.3204         calculate D2E/DX2 analytically  !
 ! A5    A(1,2,15)             114.5168         calculate D2E/DX2 analytically  !
 ! A6    A(3,2,15)             120.1558         calculate D2E/DX2 analytically  !
 ! A7    A(1,4,9)              108.3998         calculate D2E/DX2 analytically  !
 ! A8    A(1,4,12)             119.4913         calculate D2E/DX2 analytically  !
 ! A9    A(1,4,13)             118.2423         calculate D2E/DX2 analytically  !
 ! A10   A(9,4,12)              95.9087         calculate D2E/DX2 analytically  !
 ! A11   A(9,4,13)              98.1451         calculate D2E/DX2 analytically  !
 ! A12   A(12,4,13)            111.488          calculate D2E/DX2 analytically  !
 ! A13   A(6,5,7)              108.7838         calculate D2E/DX2 analytically  !
 ! A14   A(6,5,8)              109.1998         calculate D2E/DX2 analytically  !
 ! A15   A(6,5,9)              111.6318         calculate D2E/DX2 analytically  !
 ! A16   A(7,5,8)              109.0857         calculate D2E/DX2 analytically  !
 ! A17   A(7,5,9)              108.7786         calculate D2E/DX2 analytically  !
 ! A18   A(8,5,9)              109.3228         calculate D2E/DX2 analytically  !
 ! A19   A(4,9,5)              110.2872         calculate D2E/DX2 analytically  !
 ! A20   A(4,9,10)             108.414          calculate D2E/DX2 analytically  !
 ! A21   A(4,9,11)             104.7873         calculate D2E/DX2 analytically  !
 ! A22   A(5,9,10)             112.7025         calculate D2E/DX2 analytically  !
 ! A23   A(5,9,11)             111.8695         calculate D2E/DX2 analytically  !
 ! A24   A(10,9,11)            108.4221         calculate D2E/DX2 analytically  !
 ! D1    D(4,1,2,3)            175.4975         calculate D2E/DX2 analytically  !
 ! D2    D(4,1,2,15)            -5.4719         calculate D2E/DX2 analytically  !
 ! D3    D(14,1,2,3)             2.9805         calculate D2E/DX2 analytically  !
 ! D4    D(14,1,2,15)         -177.989          calculate D2E/DX2 analytically  !
 ! D5    D(2,1,4,9)            -96.4829         calculate D2E/DX2 analytically  !
 ! D6    D(2,1,4,12)           155.2905         calculate D2E/DX2 analytically  !
 ! D7    D(2,1,4,13)            13.8928         calculate D2E/DX2 analytically  !
 ! D8    D(14,1,4,9)            75.9562         calculate D2E/DX2 analytically  !
 ! D9    D(14,1,4,12)          -32.2704         calculate D2E/DX2 analytically  !
 ! D10   D(14,1,4,13)         -173.6682         calculate D2E/DX2 analytically  !
 ! D11   D(1,4,9,5)             47.4019         calculate D2E/DX2 analytically  !
 ! D12   D(1,4,9,10)           171.2329         calculate D2E/DX2 analytically  !
 ! D13   D(1,4,9,11)           -73.1496         calculate D2E/DX2 analytically  !
 ! D14   D(12,4,9,5)           171.1823         calculate D2E/DX2 analytically  !
 ! D15   D(12,4,9,10)          -64.9867         calculate D2E/DX2 analytically  !
 ! D16   D(12,4,9,11)           50.6309         calculate D2E/DX2 analytically  !
 ! D17   D(13,4,9,5)           -76.0604         calculate D2E/DX2 analytically  !
 ! D18   D(13,4,9,10)           47.7706         calculate D2E/DX2 analytically  !
 ! D19   D(13,4,9,11)          163.3882         calculate D2E/DX2 analytically  !
 ! D20   D(6,5,9,4)           -171.7986         calculate D2E/DX2 analytically  !
 ! D21   D(6,5,9,10)            66.8888         calculate D2E/DX2 analytically  !
 ! D22   D(6,5,9,11)           -55.5936         calculate D2E/DX2 analytically  !
 ! D23   D(7,5,9,4)            -51.7518         calculate D2E/DX2 analytically  !
 ! D24   D(7,5,9,10)          -173.0644         calculate D2E/DX2 analytically  !
 ! D25   D(7,5,9,11)            64.4531         calculate D2E/DX2 analytically  !
 ! D26   D(8,5,9,4)             67.274          calculate D2E/DX2 analytically  !
 ! D27   D(8,5,9,10)           -54.0385         calculate D2E/DX2 analytically  !
 ! D28   D(8,5,9,11)          -176.521          calculate D2E/DX2 analytically  !
 --------------------------------------------------------------------------------
 Trust Radius=8.00D-02 FncErr=1.00D-07 GrdErr=1.00D-06 EigMax=2.50D+02 EigMin=1.00D-04
 Number of steps in this run=     70 maximum allowed number of steps=    100.
 Search for a saddle point of order  1.
 GradGradGradGradGradGradGradGradGradGradGradGradGradGradGradGradGradGrad

                          Input orientation:                          
 ---------------------------------------------------------------------
 Center     Atomic      Atomic             Coordinates (Angstroms)
 Number     Number       Type             X           Y           Z
 ---------------------------------------------------------------------
      1          6           0        0.826860   -0.056410   -0.290520
      2          6           0        1.589470    1.081470   -0.703140
      3          8           0        2.805150    1.181890   -0.629010
      4          6           0       -0.555660   -0.125950   -0.296520
      5          6           0       -0.565260    1.507770    2.048920
      6          1           0       -0.800180    1.684640    3.098460
      7          1           0        0.513480    1.386650    1.946170
      8          1           0       -0.884650    2.366460    1.460930
      9          7           0       -1.220350    0.311010    1.547500
     10          1           0       -2.228980    0.403440    1.510700
     11          1           0       -0.993590   -0.504960    2.104320
     12         17           0       -1.340360   -1.689070   -0.405440
     13         17           0       -1.440160    1.095900   -1.174150
     14         17           0        1.705850   -1.366310    0.441700
     15          1           0        0.992000    1.901450   -1.129390
 ---------------------------------------------------------------------
                    Distance matrix (angstroms):
                    1          2          3          4          5
     1  C    0.000000
     2  C    1.430594   0.000000
     3  O    2.358303   1.222071   0.000000
     4  C    1.384281   2.494952   3.621607   0.000000
     5  C    3.139687   3.521140   4.317079   2.858360   0.000000
     6  H    4.142910   4.530607   5.210105   3.855375   1.089956
     7  H    2.680189   2.875714   3.453293   2.908724   1.090370
     8  H    3.444872   3.529259   4.402917   3.067405   1.088619
     9  N    2.775677   3.681586   4.658356   2.008272   1.453547
    10  H    3.576872   4.465576   5.525107   2.519186   2.068137
    11  H    3.041462   4.131681   4.974634   2.469709   2.058547
    12  Cl   2.715811   4.043318   5.047539   1.752416   4.104199
    13  Cl   2.692211   3.066059   4.281031   1.745134   3.365006
    14  Cl   1.739140   2.704779   2.974593   2.682888   4.000179
    15  H    2.136396   1.100467   2.013867   2.683146   3.561137
                    6          7          8          9         10
     6  H    0.000000
     7  H    1.772646   0.000000
     8  H    1.775815   1.774895   0.000000
     9  N    2.113972   2.078967   2.084482   0.000000
    10  H    2.490768   2.945747   2.379737   1.013525   0.000000
    11  H    2.412482   2.423728   2.944634   1.013546   1.644313
    12  Cl   4.893979   4.292650   4.487575   2.797981   2.973186
    13  Cl   4.360205   3.692918   2.977677   2.841082   2.882734
    14  Cl   4.758871   3.356183   4.656511   3.549485   4.444959
    15  H    4.597133   3.154849   3.232307   3.819651   4.425926
                   11         12         13         14         15
    11  H    0.000000
    12  Cl   2.796652   0.000000
    13  Cl   3.675669   2.890836   0.000000
    14  Cl   3.285301   3.178241   4.309388   0.000000
    15  H    4.493357   4.342331   2.562482   3.695424   0.000000
 Stoichiometry    C4H6Cl3NO
 Framework group  C1[X(C4H6Cl3NO)]
 Deg. of freedom    39
 Full point group                 C1      NOp   1
 Largest Abelian subgroup         C1      NOp   1
 Largest concise Abelian subgroup C1      NOp   1
                         Standard orientation:                         
 ---------------------------------------------------------------------
 Center     Atomic      Atomic             Coordinates (Angstroms)
 Number     Number       Type             X           Y           Z
 ---------------------------------------------------------------------
      1          6           0       -0.826861    0.056411   -0.290519
      2          6           0       -1.589473   -1.081468   -0.703139
      3          8           0       -2.805153   -1.181886   -0.629009
      4          6           0        0.555659    0.125949   -0.296519
      5          6           0        0.565257   -1.507771    2.048921
      6          1           0        0.800177   -1.684641    3.098461
      7          1           0       -0.513483   -1.386649    1.946171
      8          1           0        0.884646   -2.366461    1.460931
      9          7           0        1.220349   -0.311012    1.547501
     10          1           0        2.228978   -0.403443    1.510701
     11          1           0        0.993590    0.504958    2.104321
     12         17           0        1.340361    1.689068   -0.405439
     13         17           0        1.440157   -1.095902   -1.174149
     14         17           0       -1.705849    1.366312    0.441701
     15          1           0       -0.992004   -1.901449   -1.129389
 ---------------------------------------------------------------------
 Rotational constants (GHZ):           1.0800040           0.8154868           0.6956352
 Standard basis: def2TZVP (5D, 7F)
 There are   378 symmetry adapted cartesian basis functions of A   symmetry.
 There are   333 symmetry adapted basis functions of A   symmetry.
   333 basis functions,   561 primitive gaussians,   378 cartesian basis functions
    48 alpha electrons       48 beta electrons
       nuclear repulsion energy       745.4036481386 Hartrees.
 NAtoms=   15 NActive=   15 NUniq=   15 SFac= 1.00D+00 NAtFMM=   60 NAOKFM=F Big=F
 Integral buffers will be    131072 words long.
 Raffenetti 2 integral format.
 Two-electron integral symmetry is turned on.
 Nuclear repulsion after empirical dispersion term =      745.3942187364 Hartrees.
 Force inversion solution in PCM.
 ------------------------------------------------------------------------------
 Polarizable Continuum Model (PCM)
 =================================
 Model                : PCM.
 Atomic radii         : UFF (Universal Force Field).
 Polarization charges : Total charges.
 Charge compensation  : None.
 Solution method      : Matrix inversion.
 Cavity type          : Scaled VdW (van der Waals Surface) (Alpha=1.100).
 Cavity algorithm     : GePol (No added spheres)
                        Default sphere list used, NSphG=   15.
                        Lebedev-Laikov grids with approx.  5.0 points / Ang**2.
                        Smoothing algorithm: York/Karplus (Gamma=1.0000).
                        Polarization charges: spherical gaussians, with
                                              point-specific exponents (IZeta= 3).
                        Self-potential: point-specific (ISelfS= 7).
                        Self-field    : sphere-specific E.n sum rule (ISelfD= 2).
 1st derivatives      : Analytical E(r).r(x)/FMM algorithm (CHGder, D1EAlg=3).
                        Cavity 1st derivative terms included.
 2nd derivatives      : Analytical E(r).r(xy)/FMM algorithm (CHGder, D2EAlg=3).
                        Cavity 2nd derivative terms included.
 Solvent              : Water, Eps=  78.355300 Eps(inf)=   1.777849
 ------------------------------------------------------------------------------
 Spheres list:
 ISph  on   Nord     Re0    Alpha      Xe            Ye            Ze
    1   C      1    1.9255  1.100     -0.826861      0.056411     -0.290519
    2   C      2    1.9255  1.100     -1.589473     -1.081468     -0.703139
    3   O      3    1.7500  1.100     -2.805153     -1.181886     -0.629009
    4   C      4    1.9255  1.100      0.555659      0.125949     -0.296519
    5   C      5    1.9255  1.100      0.565257     -1.507771      2.048921
    6   H      6    1.4430  1.100      0.800177     -1.684641      3.098461
    7   H      7    1.4430  1.100     -0.513483     -1.386649      1.946171
    8   H      8    1.4430  1.100      0.884646     -2.366461      1.460931
    9   N      9    1.8300  1.100      1.220349     -0.311012      1.547501
   10   H     10    1.4430  1.100      2.228978     -0.403443      1.510701
   11   H     11    1.4430  1.100      0.993590      0.504958      2.104321
   12  Cl     12    1.9735  1.100      1.340361      1.689068     -0.405439
   13  Cl     13    1.9735  1.100      1.440157     -1.095902     -1.174149
   14  Cl     14    1.9735  1.100     -1.705849      1.366312      0.441701
   15   H     15    1.4430  1.100     -0.992004     -1.901449     -1.129389
 ------------------------------------------------------------------------------
 One-electron integrals computed using PRISM.
   1 Symmetry operations used in ECPInt.
 ECPInt:  NShTT=    8385 NPrTT=   28461 LenC2=    8030 LenP2D=   20274.
 LDataN:  DoStor=T MaxTD1= 6 Len=  172
 NBasis=   333 RedAO= T EigKep=  1.27D-04  NBF=   333
 NBsUse=   333 1.00D-06 EigRej= -1.00D+00 NBFU=   333
 ExpMin= 9.52D-02 ExpMax= 6.95D+04 ExpMxC= 2.37D+03 IAcc=3 IRadAn=         5 AccDes= 0.00D+00
 Harris functional with IExCor= 4639 and IRadAn=       5 diagonalized for initial guess.
 HarFok:  IExCor= 4639 AccDes= 0.00D+00 IRadAn=         5 IDoV= 1 UseB2=F ITyADJ=14
 ICtDFT=  3500011 ScaDFX=  1.000000  1.000000  1.000000  1.000000
 FoFCou: FMM=F IPFlag=           0 FMFlag=      100000 FMFlg1=           0
         NFxFlg=           0 DoJE=T BraDBF=F KetDBF=T FulRan=T
         wScrn=  0.000000 ICntrl=       500 IOpCl=  0 I1Cent=   200000004 NGrid=           0
         NMat0=    1 NMatS0=      1 NMatT0=    0 NMatD0=    1 NMtDS0=    0 NMtDT0=    0
 Petite list used in FoFCou.
 Requested convergence on RMS density matrix=1.00D-08 within 128 cycles.
 Requested convergence on MAX density matrix=1.00D-06.
 Requested convergence on             energy=1.00D-06.
 No special actions if energy rises.
 Inv3:  Mode=1 IEnd=     5746368.
 Iteration    1 A*A^-1 deviation from unit magnitude is 4.66D-15 for   1375.
 Iteration    1 A*A^-1 deviation from orthogonality  is 1.35D-15 for   1380   1298.
 Iteration    1 A^-1*A deviation from unit magnitude is 4.88D-15 for   1380.
 Iteration    1 A^-1*A deviation from orthogonality  is 1.46D-15 for    714    113.
 Error on total polarization charges =  0.01224
 SCF Done:  E(RwB97XD) =  -1666.60389452     A.U. after   15 cycles
            NFock= 15  Conv=0.53D-08     -V/T= 2.0019
 DoSCS=F DFT=T ScalE2(SS,OS)=  1.000000  1.000000
 Range of M.O.s used for correlation:     1   333
 NBasis=   333 NAE=    48 NBE=    48 NFC=     0 NFV=     0
 NROrb=    333 NOA=    48 NOB=    48 NVA=   285 NVB=   285

 **** Warning!!: The largest alpha MO coefficient is  0.19504977D+02

   1 Symmetry operations used in ECPInt.
 ECPInt:  NShTT=    8385 NPrTT=   28461 LenC2=    8030 LenP2D=   20274.
 LDataN:  DoStor=T MaxTD1= 7 Len=  274
 Symmetrizing basis deriv contribution to polar:
 IMax=3 JMax=2 DiffMx= 0.00D+00
 G2DrvN: will do    16 centers at a time, making    1 passes.
 Calling FoFCou, ICntrl=  3107 FMM=F I1Cent=   0 AccDes= 0.00D+00.
 NEqPCM:  Using equilibrium solvation (IEInf=0, Eps=  78.3553, EpsInf=   1.7778)
 G2PCM: DoFxE=T DoFxN=T DoGrad=T DoDP/DQ/DG/TGxP=FFFF NFrqRd=   0 IEInf=0 SqF1=F DoCFld=F IF1Alg=4.
 End of G2Drv F.D. properties file   721 does not exist.
 End of G2Drv F.D. properties file   722 does not exist.
 End of G2Drv F.D. properties file   788 does not exist.
          IDoAtm=111111111111111
 NEqPCM:  Using equilibrium solvation (IEInf=0, Eps=  78.3553, EpsInf=   1.7778)
          Differentiating once with respect to nuclear coordinates.
 Keep R1 ints in memory in canonical form, NReq=3119867243.
          There are    48 degrees of freedom in the 1st order CPHF.  IDoFFX=6 NUNeed=     0.
     42 vectors produced by pass  0 Test12= 2.85D-14 2.08D-09 XBig12= 1.21D-01 1.37D-01.
 AX will form    42 AO Fock derivatives at one time.
     42 vectors produced by pass  1 Test12= 2.85D-14 2.08D-09 XBig12= 5.71D-02 5.49D-02.
     42 vectors produced by pass  2 Test12= 2.85D-14 2.08D-09 XBig12= 1.77D-03 9.51D-03.
     42 vectors produced by pass  3 Test12= 2.85D-14 2.08D-09 XBig12= 3.77D-05 1.26D-03.
     42 vectors produced by pass  4 Test12= 2.85D-14 2.08D-09 XBig12= 5.69D-07 1.21D-04.
     42 vectors produced by pass  5 Test12= 2.85D-14 2.08D-09 XBig12= 5.90D-09 1.02D-05.
     42 vectors produced by pass  6 Test12= 2.85D-14 2.08D-09 XBig12= 5.27D-11 9.91D-07.
     23 vectors produced by pass  7 Test12= 2.85D-14 2.08D-09 XBig12= 4.39D-13 6.75D-08.
      4 vectors produced by pass  8 Test12= 2.85D-14 2.08D-09 XBig12= 3.11D-15 5.55D-09.
 InvSVY:  IOpt=1 It=  1 EMax= 1.78D-15
 Solved reduced A of dimension   321 with    42 vectors.
 End of Minotr F.D. properties file   721 does not exist.
 End of Minotr F.D. properties file   722 does not exist.
 End of Minotr F.D. properties file   788 does not exist.

 **********************************************************************

            Population analysis using the SCF density.

 **********************************************************************

 Orbital symmetries:
       Occupied  (A) (A) (A) (A) (A) (A) (A) (A) (A) (A) (A) (A)
                 (A) (A) (A) (A) (A) (A) (A) (A) (A) (A) (A) (A)
                 (A) (A) (A) (A) (A) (A) (A) (A) (A) (A) (A) (A)
                 (A) (A) (A) (A) (A) (A) (A) (A) (A) (A) (A) (A)
       Virtual   (A) (A) (A) (A) (A) (A) (A) (A) (A) (A) (A) (A)
                 (A) (A) (A) (A) (A) (A) (A) (A) (A) (A) (A) (A)
                 (A) (A) (A) (A) (A) (A) (A) (A) (A) (A) (A) (A)
                 (A) (A) (A) (A) (A) (A) (A) (A) (A) (A) (A) (A)
                 (A) (A) (A) (A) (A) (A) (A) (A) (A) (A) (A) (A)
                 (A) (A) (A) (A) (A) (A) (A) (A) (A) (A) (A) (A)
                 (A) (A) (A) (A) (A) (A) (A) (A) (A) (A) (A) (A)
                 (A) (A) (A) (A) (A) (A) (A) (A) (A) (A) (A) (A)
                 (A) (A) (A) (A) (A) (A) (A) (A) (A) (A) (A) (A)
                 (A) (A) (A) (A) (A) (A) (A) (A) (A) (A) (A) (A)
                 (A) (A) (A) (A) (A) (A) (A) (A) (A) (A) (A) (A)
                 (A) (A) (A) (A) (A) (A) (A) (A) (A) (A) (A) (A)
                 (A) (A) (A) (A) (A) (A) (A) (A) (A) (A) (A) (A)
                 (A) (A) (A) (A) (A) (A) (A) (A) (A) (A) (A) (A)
                 (A) (A) (A) (A) (A) (A) (A) (A) (A) (A) (A) (A)
                 (A) (A) (A) (A) (A) (A) (A) (A) (A) (A) (A) (A)
                 (A) (A) (A) (A) (A) (A) (A) (A) (A) (A) (A) (A)
                 (A) (A) (A) (A) (A) (A) (A) (A) (A) (A) (A) (A)
                 (A) (A) (A) (A) (A) (A) (A) (A) (A) (A) (A) (A)
                 (A) (A) (A) (A) (A) (A) (A) (A) (A) (A) (A) (A)
                 (A) (A) (A) (A) (A) (A) (A) (A) (A) (A) (A) (A)
                 (A) (A) (A) (A) (A) (A) (A) (A) (A) (A) (A) (A)
                 (A) (A) (A) (A) (A) (A) (A) (A) (A) (A) (A) (A)
                 (A) (A) (A) (A) (A) (A) (A) (A) (A)
 The electronic state is 1-A.
 Alpha  occ. eigenvalues -- -101.72675-101.72137-101.70209 -19.22986 -14.48993
 Alpha  occ. eigenvalues --  -10.46504 -10.36819 -10.33651 -10.32113  -9.61243
 Alpha  occ. eigenvalues --   -9.60712  -9.58726  -7.35939  -7.35401  -7.34990
 Alpha  occ. eigenvalues --   -7.34969  -7.34471  -7.34432  -7.33382  -7.32504
 Alpha  occ. eigenvalues --   -7.32484  -1.13599  -1.06129  -1.02145  -0.96847
 Alpha  occ. eigenvalues --   -0.94862  -0.84561  -0.79393  -0.73833  -0.64383
 Alpha  occ. eigenvalues --   -0.63378  -0.60438  -0.58782  -0.57389  -0.55820
 Alpha  occ. eigenvalues --   -0.51898  -0.50423  -0.49724  -0.48878  -0.47801
 Alpha  occ. eigenvalues --   -0.44555  -0.43333  -0.42271  -0.41959  -0.39459
 Alpha  occ. eigenvalues --   -0.38924  -0.34281  -0.30005
 Alpha virt. eigenvalues --    0.00675   0.05810   0.06538   0.10732   0.12405
 Alpha virt. eigenvalues --    0.14112   0.15296   0.15763   0.18015   0.18596
 Alpha virt. eigenvalues --    0.20117   0.22180   0.23353   0.23825   0.26787
 Alpha virt. eigenvalues --    0.28084   0.28513   0.29211   0.30718   0.31237
 Alpha virt. eigenvalues --    0.32899   0.33756   0.35860   0.36288   0.37476
 Alpha virt. eigenvalues --    0.37691   0.39172   0.40188   0.40342   0.41235
 Alpha virt. eigenvalues --    0.42500   0.43008   0.43366   0.44038   0.45182
 Alpha virt. eigenvalues --    0.46539   0.46709   0.48577   0.49416   0.50358
 Alpha virt. eigenvalues --    0.51086   0.51951   0.52098   0.53210   0.54270
 Alpha virt. eigenvalues --    0.55447   0.56249   0.56907   0.58042   0.58663
 Alpha virt. eigenvalues --    0.59787   0.61230   0.63460   0.64067   0.66103
 Alpha virt. eigenvalues --    0.67246   0.68635   0.69313   0.72427   0.73756
 Alpha virt. eigenvalues --    0.74764   0.75934   0.77131   0.80209   0.80631
 Alpha virt. eigenvalues --    0.81849   0.84447   0.87255   0.87801   0.92323
 Alpha virt. eigenvalues --    0.94409   0.95689   0.97140   0.99263   1.01776
 Alpha virt. eigenvalues --    1.04577   1.06907   1.09746   1.10445   1.12358
 Alpha virt. eigenvalues --    1.13749   1.16352   1.16994   1.20051   1.22025
 Alpha virt. eigenvalues --    1.25101   1.27229   1.30140   1.31207   1.33823
 Alpha virt. eigenvalues --    1.36300   1.38122   1.42909   1.44438   1.45901
 Alpha virt. eigenvalues --    1.49903   1.51372   1.55905   1.57126   1.57767
 Alpha virt. eigenvalues --    1.61105   1.63227   1.64750   1.65906   1.67712
 Alpha virt. eigenvalues --    1.70541   1.74848   1.76320   1.78116   1.79003
 Alpha virt. eigenvalues --    1.81103   1.83325   1.84623   1.85921   1.86252
 Alpha virt. eigenvalues --    1.87753   1.87869   1.88401   1.89095   1.89950
 Alpha virt. eigenvalues --    1.90642   1.92544   1.93307   1.94257   1.95759
 Alpha virt. eigenvalues --    1.96336   1.99797   2.00646   2.02053   2.02171
 Alpha virt. eigenvalues --    2.02377   2.02931   2.04520   2.05915   2.07868
 Alpha virt. eigenvalues --    2.08819   2.11463   2.12498   2.14054   2.14819
 Alpha virt. eigenvalues --    2.15341   2.15809   2.17436   2.18187   2.19666
 Alpha virt. eigenvalues --    2.20388   2.20728   2.23297   2.24472   2.25728
 Alpha virt. eigenvalues --    2.26974   2.28083   2.28588   2.31686   2.32140
 Alpha virt. eigenvalues --    2.33133   2.33678   2.34901   2.36353   2.37780
 Alpha virt. eigenvalues --    2.38891   2.41167   2.41423   2.43278   2.43967
 Alpha virt. eigenvalues --    2.44746   2.47391   2.49406   2.50807   2.55026
 Alpha virt. eigenvalues --    2.58995   2.62727   2.65463   2.67289   2.68528
 Alpha virt. eigenvalues --    2.69116   2.72032   2.74318   2.78789   2.80019
 Alpha virt. eigenvalues --    2.81128   2.83643   2.84633   2.87156   2.89807
 Alpha virt. eigenvalues --    2.94051   2.95268   2.97209   3.02456   3.04741
 Alpha virt. eigenvalues --    3.05051   3.08217   3.09702   3.11360   3.11459
 Alpha virt. eigenvalues --    3.17326   3.18241   3.20551   3.24158   3.26312
 Alpha virt. eigenvalues --    3.26875   3.28557   3.30716   3.33791   3.37875
 Alpha virt. eigenvalues --    3.38369   3.40451   3.41964   3.46003   3.47322
 Alpha virt. eigenvalues --    3.49456   3.50291   3.52886   3.59431   3.62124
 Alpha virt. eigenvalues --    3.63780   3.64299   3.66352   3.68815   3.70095
 Alpha virt. eigenvalues --    3.78583   3.80918   3.81877   3.88294   3.89612
 Alpha virt. eigenvalues --    3.94338   3.99908   4.03176   4.11619   4.15250
 Alpha virt. eigenvalues --    4.19185   4.21696   4.26774   4.30323   4.34560
 Alpha virt. eigenvalues --    4.35401   4.42339   4.43882   4.51572   4.54288
 Alpha virt. eigenvalues --    4.59673   4.63130   4.84187   4.89034   4.92194
 Alpha virt. eigenvalues --    4.95513   4.97433   5.06467   5.07317   5.15925
 Alpha virt. eigenvalues --    5.17734   5.28490   5.30373   5.35450   5.39887
 Alpha virt. eigenvalues --    5.52918   5.64485   5.75447   5.86062   6.17495
 Alpha virt. eigenvalues --    6.40733   6.44589   6.53458   6.56713   6.89173
 Alpha virt. eigenvalues --    7.06185   7.14505  10.83741  10.84293  10.85036
 Alpha virt. eigenvalues --   10.87132  10.90177  10.93026  11.40514  11.43784
 Alpha virt. eigenvalues --   11.46082  22.25516  22.48442  22.65877  23.03598
 Alpha virt. eigenvalues --   25.66055  25.80214  25.87741  32.10171  43.95449
          Condensed to atoms (all electrons):
               1          2          3          4          5          6
     1  C    6.276147  -0.135531  -0.157508   0.256003   0.054432  -0.000309
     2  C   -0.135531   4.829984   0.653464   0.066542  -0.009098   0.000118
     3  O   -0.157508   0.653464   8.009584   0.005221  -0.002299   0.000005
     4  C    0.256003   0.066542   0.005221   4.768756  -0.002181   0.002952
     5  C    0.054432  -0.009098  -0.002299  -0.002181   4.905377   0.405525
     6  H   -0.000309   0.000118   0.000005   0.002952   0.405525   0.486952
     7  H    0.005143  -0.002361   0.002215  -0.029230   0.409831  -0.018665
     8  H   -0.013528   0.002055   0.000134   0.004723   0.413332  -0.015404
     9  N   -0.088469   0.006949   0.000583   0.045340   0.181413  -0.019850
    10  H    0.009173  -0.000324   0.000001  -0.014979  -0.017921  -0.003141
    11  H   -0.013905  -0.000068   0.000015   0.005156  -0.016692  -0.004458
    12  Cl  -0.064686  -0.001128  -0.000193   0.394704   0.002580  -0.000262
    13  Cl  -0.054504  -0.019335   0.000421   0.375185  -0.004645  -0.000065
    14  Cl   0.264823  -0.022607  -0.001242  -0.044462  -0.007901  -0.000102
    15  H   -0.234636   0.547838  -0.059913   0.024772  -0.001075  -0.000062
               7          8          9         10         11         12
     1  C    0.005143  -0.013528  -0.088469   0.009173  -0.013905  -0.064686
     2  C   -0.002361   0.002055   0.006949  -0.000324  -0.000068  -0.001128
     3  O    0.002215   0.000134   0.000583   0.000001   0.000015  -0.000193
     4  C   -0.029230   0.004723   0.045340  -0.014979   0.005156   0.394704
     5  C    0.409831   0.413332   0.181413  -0.017921  -0.016692   0.002580
     6  H   -0.018665  -0.015404  -0.019850  -0.003141  -0.004458  -0.000262
     7  H    0.505521  -0.022405  -0.025444   0.004777  -0.003429   0.000658
     8  H   -0.022405   0.498080  -0.034688  -0.006320   0.005329   0.000276
     9  N   -0.025444  -0.034688   6.713278   0.354574   0.348471  -0.067183
    10  H    0.004777  -0.006320   0.354574   0.389589  -0.019766   0.003820
    11  H   -0.003429   0.005329   0.348471  -0.019766   0.398681   0.003462
    12  Cl   0.000658   0.000276  -0.067183   0.003820   0.003462  16.836752
    13  Cl   0.000977   0.006852  -0.047309   0.002502   0.002832  -0.066771
    14  Cl   0.006435   0.000341   0.007819   0.000011   0.004103  -0.014450
    15  H    0.000517   0.000128  -0.001479   0.000098  -0.000076  -0.000047
              13         14         15
     1  C   -0.054504   0.264823  -0.234636
     2  C   -0.019335  -0.022607   0.547838
     3  O    0.000421  -0.001242  -0.059913
     4  C    0.375185  -0.044462   0.024772
     5  C   -0.004645  -0.007901  -0.001075
     6  H   -0.000065  -0.000102  -0.000062
     7  H    0.000977   0.006435   0.000517
     8  H    0.006852   0.000341   0.000128
     9  N   -0.047309   0.007819  -0.001479
    10  H    0.002502   0.000011   0.000098
    11  H    0.002832   0.004103  -0.000076
    12  Cl  -0.066771  -0.014450  -0.000047
    13  Cl  16.823961   0.003953  -0.000801
    14  Cl   0.003953  16.921212   0.005746
    15  H   -0.000801   0.005746   0.613278
 Mulliken charges:
               1
     1  C   -0.102643
     2  C    0.083502
     3  O   -0.450489
     4  C    0.141496
     5  C   -0.310677
     6  H    0.166766
     7  H    0.165461
     8  H    0.161095
     9  N   -0.374005
    10  H    0.297906
    11  H    0.290344
    12  Cl  -0.027533
    13  Cl  -0.023254
    14  Cl  -0.123680
    15  H    0.105711
 Sum of Mulliken charges =  -0.00000
 Mulliken charges with hydrogens summed into heavy atoms:
               1
     1  C   -0.102643
     2  C    0.189213
     3  O   -0.450489
     4  C    0.141496
     5  C    0.182645
     9  N    0.214245
    12  Cl  -0.027533
    13  Cl  -0.023254
    14  Cl  -0.123680
 APT charges:
               1
     1  C   -0.002319
     2  C   -0.849404
     3  O    0.083473
     4  C   -0.561379
     5  C   -1.089494
     6  H    0.691632
     7  H    0.161472
     8  H    0.345113
     9  N   -0.830972
    10  H    0.678467
    11  H    0.514355
    12  Cl   0.237253
    13  Cl   0.232351
    14  Cl   0.065828
    15  H    0.323624
 Sum of APT charges =  -0.00000
 APT charges with hydrogens summed into heavy atoms:
               1
     1  C   -0.002319
     2  C   -0.525780
     3  O    0.083473
     4  C   -0.561379
     5  C    0.108723
     9  N    0.361849
    12  Cl   0.237253
    13  Cl   0.232351
    14  Cl   0.065828
 Electronic spatial extent (au):  <R**2>=           1845.4364
 Charge=             -0.0000 electrons
 Dipole moment (field-independent basis, Debye):
    X=              8.6145    Y=             -1.1631    Z=              4.9739  Tot=             10.0151
 Quadrupole moment (field-independent basis, Debye-Ang):
   XX=            -87.2819   YY=            -72.2506   ZZ=            -64.4350
   XY=             -6.0242   XZ=              2.7602   YZ=             -2.0795
 Traceless Quadrupole moment (field-independent basis, Debye-Ang):
   XX=            -12.6260   YY=              2.4053   ZZ=             10.2208
   XY=             -6.0242   XZ=              2.7602   YZ=             -2.0795
 Octapole moment (field-independent basis, Debye-Ang**2):
  XXX=             76.1320  YYY=             -0.2006  ZZZ=             23.6618  XYY=             15.8420
  XXY=             17.3200  XXZ=             19.8888  XZZ=             14.4950  YZZ=             -5.2637
  YYZ=              5.3315  XYZ=              2.4603
 Hexadecapole moment (field-independent basis, Debye-Ang**3):
 XXXX=          -1196.4365 YYYY=           -708.4278 ZZZZ=           -478.3385 XXXY=            -73.3703
 XXXZ=            -17.2227 YYYX=            -11.9964 YYYZ=              1.6951 ZZZX=             19.5634
 ZZZY=             -4.5791 XXYY=           -312.9761 XXZZ=           -253.4724 YYZZ=           -194.5380
 XXYZ=            -11.2162 YYXZ=             -8.2707 ZZXY=             -9.4766
 N-N= 7.453942187364D+02 E-N=-5.442000578771D+03  KE= 1.663371138720D+03
  Exact polarizability:   0.000   0.000   0.000   0.000   0.000   0.000
 Approx polarizability: 142.715   3.266 119.674   5.625   7.940 105.726
   1 Symmetry operations used in ECPInt.
 ECPInt:  NShTT=    8385 NPrTT=   28461 LenC2=    8030 LenP2D=   20274.
 LDataN:  DoStor=T MaxTD1= 8 Len=  415
 D2PCM: PCM CHGder 2nd derivatives, FixD1E=F FixD2E=F DoIter=F DoCFld=F I1PDM=0
 Calling FoFJK, ICntrl=    100147 FMM=F ISym2X=0 I1Cent= 0 IOpClX= 0 NMat=1 NMatS=1 NMatT=0.
 ***** Axes restored to original set *****
 -------------------------------------------------------------------
 Center     Atomic                   Forces (Hartrees/Bohr)
 Number     Number              X              Y              Z
 -------------------------------------------------------------------
      1        6          -0.000005794   -0.000005507    0.000011144
      2        6           0.000005741    0.000008358    0.000006539
      3        8          -0.000005608   -0.000000714    0.000000851
      4        6           0.000002832    0.000016303   -0.000010203
      5        6           0.000003677   -0.000004365   -0.000016044
      6        1          -0.000001275    0.000001757   -0.000005161
      7        1           0.000009420   -0.000001548   -0.000011073
      8        1           0.000001029    0.000002542    0.000002192
      9        7          -0.000005837   -0.000013242    0.000012765
     10        1           0.000006740   -0.000000727   -0.000000477
     11        1          -0.000008609   -0.000006603   -0.000000088
     12       17           0.000004966    0.000000033   -0.000003231
     13       17           0.000002231   -0.000005076    0.000002905
     14       17          -0.000009091    0.000007780    0.000012456
     15        1          -0.000000420    0.000001009   -0.000002575
 -------------------------------------------------------------------
 Cartesian Forces:  Max     0.000016303 RMS     0.000007005
 FormGI is forming the generalized inverse of G from B-inverse, IUseBI=4.

 GradGradGradGradGradGradGradGradGradGradGradGradGradGradGradGradGradGrad
 Berny optimization.
 Internal  Forces:  Max     0.000069873 RMS     0.000015643
 Search for a saddle point.
 Step number   1 out of a maximum of   70
 All quantities printed in internal units (Hartrees-Bohrs-Radians)
 Swapping is turned off.
 Second derivative matrix not updated -- analytic derivatives used.
 ITU=  0
     Eigenvalues ---   -0.03132   0.00071   0.00268   0.00735   0.01254
     Eigenvalues ---    0.01691   0.02114   0.03155   0.04641   0.04737
     Eigenvalues ---    0.05246   0.06551   0.07913   0.08291   0.09017
     Eigenvalues ---    0.13010   0.13323   0.13800   0.14825   0.16546
     Eigenvalues ---    0.17521   0.17975   0.18432   0.19488   0.20764
     Eigenvalues ---    0.23469   0.25122   0.26705   0.30644   0.33273
     Eigenvalues ---    0.34236   0.34273   0.34788   0.37039   0.37444
     Eigenvalues ---    0.45434   0.45538   0.50110   0.79115
 Eigenvectors required to have negative eigenvalues:
                          R6        D9        D6        A7        R2
   1                    0.89809   0.20892   0.19008  -0.10682  -0.10034
                          D7        R7        A11       D10       R1
   1                   -0.09693  -0.09679  -0.09119  -0.07809   0.07721
 RFO step:  Lambda0=5.129154393D-11 Lambda=-1.71367914D-07.
 Linear search not attempted -- option 19 set.
 Iteration  1 RMS(Cart)=  0.00107406 RMS(Int)=  0.00000042
 Iteration  2 RMS(Cart)=  0.00000052 RMS(Int)=  0.00000001
 Variable       Old X    -DE/DX   Delta X   Delta X   Delta X     New X
                                 (Linear)    (Quad)   (Total)
    R1        2.70343   0.00000   0.00000   0.00000   0.00000   2.70343
    R2        2.61591  -0.00002   0.00000  -0.00004  -0.00004   2.61587
    R3        3.28650  -0.00001   0.00000  -0.00001  -0.00001   3.28648
    R4        2.30938  -0.00001   0.00000  -0.00001  -0.00001   2.30937
    R5        2.07958   0.00000   0.00000   0.00001   0.00001   2.07959
    R6        3.79508  -0.00002   0.00000   0.00014   0.00014   3.79522
    R7        3.31159  -0.00000   0.00000   0.00003   0.00003   3.31161
    R8        3.29782  -0.00001   0.00000  -0.00011  -0.00011   3.29772
    R9        2.05972  -0.00000   0.00000  -0.00001  -0.00001   2.05970
   R10        2.06050   0.00001   0.00000   0.00003   0.00003   2.06053
   R11        2.05719  -0.00000   0.00000   0.00000   0.00000   2.05719
   R12        2.74681  -0.00000   0.00000  -0.00003  -0.00003   2.74677
   R13        1.91528  -0.00001   0.00000  -0.00003  -0.00003   1.91526
   R14        1.91532   0.00000   0.00000  -0.00000  -0.00000   1.91532
    A1        2.17864  -0.00000   0.00000   0.00004   0.00004   2.17868
    A2        2.03878   0.00001   0.00000   0.00009   0.00009   2.03887
    A3        2.05868  -0.00001   0.00000  -0.00016  -0.00016   2.05853
    A4        2.18725  -0.00000   0.00000   0.00001   0.00001   2.18726
    A5        1.99870   0.00000   0.00000  -0.00003  -0.00003   1.99867
    A6        2.09711   0.00000   0.00000   0.00002   0.00002   2.09714
    A7        1.89193  -0.00007   0.00000  -0.00040  -0.00040   1.89154
    A8        2.08552   0.00001   0.00000   0.00004   0.00004   2.08556
    A9        2.06372   0.00001   0.00000   0.00007   0.00007   2.06379
   A10        1.67392   0.00003   0.00000   0.00009   0.00009   1.67401
   A11        1.71296   0.00003   0.00000   0.00016   0.00016   1.71312
   A12        1.94583  -0.00001   0.00000   0.00000   0.00000   1.94584
   A13        1.89864   0.00000   0.00000   0.00003   0.00003   1.89866
   A14        1.90590  -0.00000   0.00000  -0.00003  -0.00003   1.90587
   A15        1.94834   0.00000   0.00000   0.00005   0.00005   1.94839
   A16        1.90391  -0.00000   0.00000  -0.00006  -0.00006   1.90384
   A17        1.89854  -0.00001   0.00000  -0.00000  -0.00000   1.89854
   A18        1.90804   0.00001   0.00000   0.00002   0.00002   1.90806
   A19        1.92487  -0.00007   0.00000  -0.00053  -0.00053   1.92434
   A20        1.89218   0.00003   0.00000   0.00009   0.00009   1.89228
   A21        1.82888   0.00002   0.00000   0.00024   0.00024   1.82912
   A22        1.96703   0.00002   0.00000   0.00006   0.00006   1.96709
   A23        1.95249   0.00002   0.00000   0.00014   0.00014   1.95263
   A24        1.89232  -0.00001   0.00000   0.00002   0.00002   1.89234
    D1        3.06301  -0.00000   0.00000  -0.00016  -0.00016   3.06285
    D2       -0.09550  -0.00001   0.00000  -0.00025  -0.00025  -0.09575
    D3        0.05202   0.00001   0.00000   0.00013   0.00013   0.05215
    D4       -3.10649   0.00000   0.00000   0.00004   0.00004  -3.10646
    D5       -1.68394  -0.00000   0.00000  -0.00073  -0.00073  -1.68467
    D6        2.71033   0.00001   0.00000  -0.00058  -0.00058   2.70975
    D7        0.24247  -0.00001   0.00000  -0.00076  -0.00076   0.24171
    D8        1.32569  -0.00001   0.00000  -0.00100  -0.00100   1.32469
    D9       -0.56322  -0.00000   0.00000  -0.00085  -0.00085  -0.56407
   D10       -3.03108  -0.00002   0.00000  -0.00103  -0.00103  -3.03211
   D11        0.82732  -0.00000   0.00000  -0.00102  -0.00102   0.82630
   D12        2.98858  -0.00001   0.00000  -0.00123  -0.00123   2.98735
   D13       -1.27670  -0.00000   0.00000  -0.00104  -0.00104  -1.27774
   D14        2.98769  -0.00001   0.00000  -0.00107  -0.00107   2.98663
   D15       -1.13423  -0.00001   0.00000  -0.00128  -0.00128  -1.13551
   D16        0.88368  -0.00000   0.00000  -0.00109  -0.00109   0.88258
   D17       -1.32750  -0.00000   0.00000  -0.00102  -0.00102  -1.32853
   D18        0.83375  -0.00000   0.00000  -0.00123  -0.00123   0.83252
   D19        2.85166   0.00000   0.00000  -0.00104  -0.00104   2.85062
   D20       -2.99845   0.00000   0.00000   0.00046   0.00046  -2.99799
   D21        1.16743   0.00001   0.00000   0.00068   0.00068   1.16811
   D22       -0.97029  -0.00001   0.00000   0.00051   0.00051  -0.96978
   D23       -0.90324   0.00001   0.00000   0.00052   0.00052  -0.90272
   D24       -3.02054   0.00001   0.00000   0.00074   0.00074  -3.01980
   D25        1.12492  -0.00000   0.00000   0.00057   0.00057   1.12549
   D26        1.17415   0.00000   0.00000   0.00046   0.00046   1.17461
   D27       -0.94315   0.00000   0.00000   0.00068   0.00068  -0.94247
   D28       -3.08087  -0.00001   0.00000   0.00050   0.00050  -3.08037
         Item               Value     Threshold  Converged?
 Maximum Force            0.000070     0.000450     YES
 RMS     Force            0.000016     0.000300     YES
 Maximum Displacement     0.004163     0.001800     NO 
 RMS     Displacement     0.001074     0.001200     YES
 Predicted change in Energy=-8.565831D-08
 GradGradGradGradGradGradGradGradGradGradGradGradGradGradGradGradGradGrad

                          Input orientation:                          
 ---------------------------------------------------------------------
 Center     Atomic      Atomic             Coordinates (Angstroms)
 Number     Number       Type             X           Y           Z
 ---------------------------------------------------------------------
      1          6           0        0.826631   -0.055914   -0.290076
      2          6           0        1.589105    1.081892   -0.703155
      3          8           0        2.804703    1.182783   -0.628390
      4          6           0       -0.555844   -0.125908   -0.296651
      5          6           0       -0.564522    1.507109    2.048724
      6          1           0       -0.798832    1.684040    3.098383
      7          1           0        0.514093    1.385210    1.945439
      8          1           0       -0.883497    2.366141    1.461005
      9          7           0       -1.220721    0.310932    1.547410
     10          1           0       -2.229244    0.404300    1.510438
     11          1           0       -0.994796   -0.505280    2.104212
     12         17           0       -1.340058   -1.689281   -0.405685
     13         17           0       -1.440459    1.095597   -1.174533
     14         17           0        1.705467   -1.364922    0.443903
     15          1           0        0.991595    1.901281   -1.130495
 ---------------------------------------------------------------------
                    Distance matrix (angstroms):
                    1          2          3          4          5
     1  C    0.000000
     2  C    1.430596   0.000000
     3  O    2.358304   1.222066   0.000000
     4  C    1.384261   2.494962   3.621602   0.000000
     5  C    3.138205   3.520193   4.315531   2.857902   0.000000
     6  H    4.141403   4.529516   5.208220   3.855024   1.089949
     7  H    2.678068   2.874492   3.451445   2.907785   1.090384
     8  H    3.443424   3.527981   4.400992   3.067086   1.088620
     9  N    2.775352   3.681650   4.658140   2.008346   1.453530
    10  H    3.576593   4.465301   5.524603   2.519317   2.068148
    11  H    3.041733   4.132429   4.975225   2.469969   2.058622
    12  Cl   2.715841   4.043252   5.047513   1.752431   4.103960
    13  Cl   2.692199   3.066047   4.281037   1.745077   3.365411
    14  Cl   1.739132   2.704844   2.974715   2.682742   3.997107
    15  H    2.136382   1.100472   2.013880   2.683162   3.561503
                    6          7          8          9         10
     6  H    0.000000
     7  H    1.772667   0.000000
     8  H    1.775791   1.774869   0.000000
     9  N    2.113984   2.078961   2.084482   0.000000
    10  H    2.491060   2.945727   2.379558   1.013510   0.000000
    11  H    2.412446   2.424027   2.944683   1.013545   1.644313
    12  Cl   4.893946   4.291638   4.487697   2.798156   2.974098
    13  Cl   4.360706   3.693017   2.978346   2.841295   2.882558
    14  Cl   4.755412   3.352195   4.653822   3.548069   4.444052
    15  H    4.597415   3.155267   3.232327   3.820304   4.425978
                   11         12         13         14         15
    11  H    0.000000
    12  Cl   2.796542   0.000000
    13  Cl   3.675812   2.890805   0.000000
    14  Cl   3.284362   3.178401   4.309332   0.000000
    15  H    4.494510   4.342130   2.562411   3.695460   0.000000
 Stoichiometry    C4H6Cl3NO
 Framework group  C1[X(C4H6Cl3NO)]
 Deg. of freedom    39
 Full point group                 C1      NOp   1
 Largest Abelian subgroup         C1      NOp   1
 Largest concise Abelian subgroup C1      NOp   1
                         Standard orientation:                         
 ---------------------------------------------------------------------
 Center     Atomic      Atomic             Coordinates (Angstroms)
 Number     Number       Type             X           Y           Z
 ---------------------------------------------------------------------
      1          6           0       -0.826417    0.056702   -0.291228
      2          6           0       -1.589751   -1.080751   -0.703693
      3          8           0       -2.805528   -1.180220   -0.629957
      4          6           0        0.556140    0.125171   -0.296581
      5          6           0        0.560814   -1.505102    2.050714
      6          1           0        0.793941   -1.681059    3.100799
      7          1           0       -0.517568   -1.382142    1.946268
      8          1           0        0.879400   -2.365172    1.464303
      9          7           0        1.218798   -0.310235    1.548618
     10          1           0        2.227253   -0.404753    1.512707
     11          1           0        0.993245    0.506877    2.104250
     12         17           0        1.342172    1.687554   -0.406706
     13         17           0        1.440240   -1.098332   -1.172195
     14         17           0       -1.704507    1.367533    0.440387
     15          1           0       -0.992738   -1.901296   -1.129508
 ---------------------------------------------------------------------
 Rotational constants (GHZ):           1.0801225           0.8155353           0.6957967
 Standard basis: def2TZVP (5D, 7F)
 There are   378 symmetry adapted cartesian basis functions of A   symmetry.
 There are   333 symmetry adapted basis functions of A   symmetry.
   333 basis functions,   561 primitive gaussians,   378 cartesian basis functions
    48 alpha electrons       48 beta electrons
       nuclear repulsion energy       745.4343568978 Hartrees.
 NAtoms=   15 NActive=   15 NUniq=   15 SFac= 1.00D+00 NAtFMM=   60 NAOKFM=F Big=F
 Integral buffers will be    131072 words long.
 Raffenetti 2 integral format.
 Two-electron integral symmetry is turned on.
 Nuclear repulsion after empirical dispersion term =      745.4249253341 Hartrees.
 ------------------------------------------------------------------------------
 Polarizable Continuum Model (PCM)
 =================================
 Model                : PCM.
 Atomic radii         : UFF (Universal Force Field).
 Polarization charges : Total charges.
 Charge compensation  : None.
 Solution method      : Matrix inversion.
 Cavity type          : Scaled VdW (van der Waals Surface) (Alpha=1.100).
 Cavity algorithm     : GePol (No added spheres)
                        Default sphere list used, NSphG=   15.
                        Lebedev-Laikov grids with approx.  5.0 points / Ang**2.
                        Smoothing algorithm: York/Karplus (Gamma=1.0000).
                        Polarization charges: spherical gaussians, with
                                              point-specific exponents (IZeta= 3).
                        Self-potential: point-specific (ISelfS= 7).
                        Self-field    : sphere-specific E.n sum rule (ISelfD= 2).
 1st derivatives      : Analytical E(r).r(x)/FMM algorithm (CHGder, D1EAlg=3).
                        Cavity 1st derivative terms included.
 Solvent              : Water, Eps=  78.355300 Eps(inf)=   1.777849
 ------------------------------------------------------------------------------
 Spheres list:
 ISph  on   Nord     Re0    Alpha      Xe            Ye            Ze
    1   C      1    1.9255  1.100     -0.826417      0.056702     -0.291228
    2   C      2    1.9255  1.100     -1.589751     -1.080751     -0.703693
    3   O      3    1.7500  1.100     -2.805528     -1.180220     -0.629957
    4   C      4    1.9255  1.100      0.556140      0.125171     -0.296581
    5   C      5    1.9255  1.100      0.560814     -1.505102      2.050714
    6   H      6    1.4430  1.100      0.793941     -1.681059      3.100799
    7   H      7    1.4430  1.100     -0.517568     -1.382142      1.946268
    8   H      8    1.4430  1.100      0.879400     -2.365172      1.464303
    9   N      9    1.8300  1.100      1.218798     -0.310235      1.548618
   10   H     10    1.4430  1.100      2.227253     -0.404753      1.512707
   11   H     11    1.4430  1.100      0.993245      0.506877      2.104250
   12  Cl     12    1.9735  1.100      1.342172      1.687554     -0.406706
   13  Cl     13    1.9735  1.100      1.440240     -1.098332     -1.172195
   14  Cl     14    1.9735  1.100     -1.704507      1.367533      0.440387
   15   H     15    1.4430  1.100     -0.992738     -1.901296     -1.129508
 ------------------------------------------------------------------------------
 One-electron integrals computed using PRISM.
   1 Symmetry operations used in ECPInt.
 ECPInt:  NShTT=    8385 NPrTT=   28461 LenC2=    8030 LenP2D=   20275.
 LDataN:  DoStor=T MaxTD1= 6 Len=  172
 NBasis=   333 RedAO= T EigKep=  1.27D-04  NBF=   333
 NBsUse=   333 1.00D-06 EigRej= -1.00D+00 NBFU=   333
 Initial guess from the checkpoint file:  "/beegfs/scratch/user/q/tla25/Gau-86222.chk"
 B after Tr=     0.000000    0.000000   -0.000000
         Rot=    1.000000    0.000490    0.000346    0.000439 Ang=   0.09 deg.
 Requested convergence on RMS density matrix=1.00D-08 within 128 cycles.
 Requested convergence on MAX density matrix=1.00D-06.
 Requested convergence on             energy=1.00D-06.
 No special actions if energy rises.
 Inv3:  Mode=1 IEnd=     5746368.
 Iteration    1 A*A^-1 deviation from unit magnitude is 5.22D-15 for   1375.
 Iteration    1 A*A^-1 deviation from orthogonality  is 1.39D-15 for   1374   1373.
 Iteration    1 A^-1*A deviation from unit magnitude is 5.44D-15 for   1375.
 Iteration    1 A^-1*A deviation from orthogonality  is 1.40D-15 for    794    381.
 Error on total polarization charges =  0.01224
 SCF Done:  E(RwB97XD) =  -1666.60389448     A.U. after    8 cycles
            NFock=  8  Conv=0.86D-08     -V/T= 2.0019
   1 Symmetry operations used in ECPInt.
 ECPInt:  NShTT=    8385 NPrTT=   28461 LenC2=    8030 LenP2D=   20275.
 LDataN:  DoStor=T MaxTD1= 7 Len=  274
 D1PCM: PCM CHGder 1st derivatives, ID1Alg=3 FixD1E=F DoIter=F DoCFld=F I1PDM=0.
 Calling FoFJK, ICntrl=      2127 FMM=F ISym2X=0 I1Cent= 0 IOpClX= 0 NMat=1 NMatS=1 NMatT=0.
 ***** Axes restored to original set *****
 -------------------------------------------------------------------
 Center     Atomic                   Forces (Hartrees/Bohr)
 Number     Number              X              Y              Z
 -------------------------------------------------------------------
      1        6           0.000000923   -0.000000308    0.000000174
      2        6          -0.000000403   -0.000000869    0.000001099
      3        8          -0.000000326   -0.000001852    0.000002722
      4        6          -0.000000103   -0.000000930   -0.000000607
      5        6          -0.000003093    0.000001081    0.000000900
      6        1          -0.000002318   -0.000000011   -0.000000496
      7        1          -0.000001618    0.000001810    0.000001510
      8        1          -0.000000646    0.000000519   -0.000001214
      9        7          -0.000002227    0.000000329   -0.000002804
     10        1          -0.000000144   -0.000000294   -0.000002742
     11        1          -0.000001608   -0.000000061    0.000001120
     12       17           0.000003342   -0.000001641   -0.000000349
     13       17          -0.000001472   -0.000000785   -0.000000467
     14       17           0.000004811    0.000002041   -0.000000121
     15        1           0.000004882    0.000000971    0.000001275
 -------------------------------------------------------------------
 Cartesian Forces:  Max     0.000004882 RMS     0.000001751

 GradGradGradGradGradGradGradGradGradGradGradGradGradGradGradGradGradGrad
 Berny optimization.
 FormGI is forming the generalized inverse of G from B-inverse, IUseBI=4.
 Internal  Forces:  Max     0.000011566 RMS     0.000003192
 Search for a saddle point.
 Step number   2 out of a maximum of   70
 All quantities printed in internal units (Hartrees-Bohrs-Radians)
 Swapping is turned off.
 Update second derivatives using D2CorX and points    1    2
 ITU=  0  0
     Eigenvalues ---   -0.03132   0.00071   0.00176   0.00741   0.01287
     Eigenvalues ---    0.01698   0.02129   0.03157   0.04641   0.04738
     Eigenvalues ---    0.05247   0.06552   0.07913   0.08292   0.09017
     Eigenvalues ---    0.13005   0.13323   0.13806   0.14824   0.16551
     Eigenvalues ---    0.17538   0.17997   0.18484   0.19493   0.20768
     Eigenvalues ---    0.23465   0.25122   0.26710   0.30645   0.33275
     Eigenvalues ---    0.34237   0.34274   0.34788   0.37040   0.37446
     Eigenvalues ---    0.45434   0.45538   0.50115   0.79115
 Eigenvectors required to have negative eigenvalues:
                          R6        D9        D6        A7        R2
   1                   -0.89833  -0.20777  -0.18905   0.10681   0.10036
                          D7        R7        A11       D10       R1
   1                    0.09805   0.09672   0.09124   0.07933  -0.07721
 RFO step:  Lambda0=3.777685803D-11 Lambda= 0.00000000D+00.
 Linear search not attempted -- option 19 set.
 Iteration  1 RMS(Cart)=  0.00014849 RMS(Int)=  0.00000001
 Iteration  2 RMS(Cart)=  0.00000001 RMS(Int)=  0.00000000
 Variable       Old X    -DE/DX   Delta X   Delta X   Delta X     New X
                                 (Linear)    (Quad)   (Total)
    R1        2.70343  -0.00000   0.00000  -0.00000  -0.00000   2.70343
    R2        2.61587   0.00000   0.00000   0.00001   0.00001   2.61588
    R3        3.28648  -0.00000   0.00000   0.00000   0.00000   3.28649
    R4        2.30937  -0.00000   0.00000   0.00000   0.00000   2.30937
    R5        2.07959  -0.00000   0.00000  -0.00000  -0.00000   2.07959
    R6        3.79522   0.00000   0.00000  -0.00006  -0.00006   3.79516
    R7        3.31161   0.00000   0.00000   0.00000   0.00000   3.31162
    R8        3.29772   0.00000   0.00000   0.00002   0.00002   3.29774
    R9        2.05970   0.00000   0.00000  -0.00000  -0.00000   2.05970
   R10        2.06053  -0.00000   0.00000  -0.00000  -0.00000   2.06053
   R11        2.05719   0.00000   0.00000   0.00000   0.00000   2.05720
   R12        2.74677   0.00000   0.00000   0.00001   0.00001   2.74678
   R13        1.91526  -0.00000   0.00000  -0.00000  -0.00000   1.91526
   R14        1.91532   0.00000   0.00000   0.00000   0.00000   1.91533
    A1        2.17868   0.00001   0.00000   0.00003   0.00003   2.17871
    A2        2.03887  -0.00001   0.00000  -0.00005  -0.00005   2.03882
    A3        2.05853   0.00000   0.00000   0.00003   0.00003   2.05856
    A4        2.18726  -0.00001   0.00000  -0.00003  -0.00003   2.18723
    A5        1.99867   0.00001   0.00000   0.00005   0.00005   1.99871
    A6        2.09714  -0.00000   0.00000  -0.00002  -0.00002   2.09712
    A7        1.89154   0.00001   0.00000   0.00009   0.00009   1.89162
    A8        2.08556  -0.00000   0.00000  -0.00003  -0.00003   2.08553
    A9        2.06379   0.00000   0.00000  -0.00000  -0.00000   2.06378
   A10        1.67401  -0.00000   0.00000   0.00001   0.00001   1.67402
   A11        1.71312  -0.00001   0.00000  -0.00005  -0.00005   1.71306
   A12        1.94584   0.00000   0.00000   0.00000   0.00000   1.94584
   A13        1.89866  -0.00000   0.00000  -0.00000  -0.00000   1.89866
   A14        1.90587  -0.00000   0.00000   0.00000   0.00000   1.90587
   A15        1.94839  -0.00000   0.00000  -0.00001  -0.00001   1.94838
   A16        1.90384  -0.00000   0.00000  -0.00001  -0.00001   1.90384
   A17        1.89854   0.00000   0.00000   0.00001   0.00001   1.89855
   A18        1.90806   0.00000   0.00000   0.00000   0.00000   1.90807
   A19        1.92434   0.00001   0.00000   0.00004   0.00004   1.92438
   A20        1.89228  -0.00000   0.00000  -0.00008  -0.00008   1.89219
   A21        1.82912  -0.00000   0.00000   0.00008   0.00008   1.82920
   A22        1.96709  -0.00000   0.00000  -0.00002  -0.00002   1.96707
   A23        1.95263  -0.00000   0.00000  -0.00000  -0.00000   1.95262
   A24        1.89234   0.00000   0.00000  -0.00000  -0.00000   1.89234
    D1        3.06285   0.00000   0.00000   0.00009   0.00009   3.06294
    D2       -0.09575   0.00000   0.00000   0.00010   0.00010  -0.09566
    D3        0.05215  -0.00000   0.00000   0.00001   0.00001   0.05216
    D4       -3.10646  -0.00000   0.00000   0.00002   0.00002  -3.10643
    D5       -1.68467   0.00000   0.00000   0.00008   0.00008  -1.68459
    D6        2.70975  -0.00000   0.00000   0.00003   0.00003   2.70978
    D7        0.24171   0.00000   0.00000   0.00007   0.00007   0.24179
    D8        1.32469   0.00000   0.00000   0.00015   0.00015   1.32484
    D9       -0.56407  -0.00000   0.00000   0.00009   0.00009  -0.56398
   D10       -3.03211   0.00000   0.00000   0.00014   0.00014  -3.03197
   D11        0.82630   0.00000   0.00000  -0.00016  -0.00016   0.82614
   D12        2.98735   0.00000   0.00000  -0.00022  -0.00022   2.98713
   D13       -1.27774   0.00000   0.00000  -0.00022  -0.00022  -1.27796
   D14        2.98663  -0.00000   0.00000  -0.00016  -0.00016   2.98647
   D15       -1.13551  -0.00000   0.00000  -0.00022  -0.00022  -1.13573
   D16        0.88258  -0.00000   0.00000  -0.00022  -0.00022   0.88236
   D17       -1.32853  -0.00000   0.00000  -0.00016  -0.00016  -1.32869
   D18        0.83252  -0.00000   0.00000  -0.00022  -0.00022   0.83230
   D19        2.85062  -0.00000   0.00000  -0.00022  -0.00022   2.85039
   D20       -2.99799  -0.00000   0.00000  -0.00007  -0.00007  -2.99806
   D21        1.16811  -0.00000   0.00000   0.00002   0.00002   1.16814
   D22       -0.96978   0.00000   0.00000   0.00005   0.00005  -0.96973
   D23       -0.90272  -0.00000   0.00000  -0.00007  -0.00007  -0.90279
   D24       -3.01980  -0.00000   0.00000   0.00002   0.00002  -3.01978
   D25        1.12549   0.00000   0.00000   0.00005   0.00005   1.12553
   D26        1.17461  -0.00000   0.00000  -0.00007  -0.00007   1.17454
   D27       -0.94247  -0.00000   0.00000   0.00002   0.00002  -0.94245
   D28       -3.08037   0.00000   0.00000   0.00005   0.00005  -3.08032
         Item               Value     Threshold  Converged?
 Maximum Force            0.000012     0.000450     YES
 RMS     Force            0.000003     0.000300     YES
 Maximum Displacement     0.000447     0.001800     YES
 RMS     Displacement     0.000148     0.001200     YES
 Predicted change in Energy=-2.437751D-09
 Optimization completed.
    -- Stationary point found.
                           ----------------------------
                           !   Optimized Parameters   !
                           ! (Angstroms and Degrees)  !
 --------------------------                            --------------------------
 ! Name  Definition              Value          Derivative Info.                !
 --------------------------------------------------------------------------------
 ! R1    R(1,2)                  1.4306         -DE/DX =    0.0                 !
 ! R2    R(1,4)                  1.3843         -DE/DX =    0.0                 !
 ! R3    R(1,14)                 1.7391         -DE/DX =    0.0                 !
 ! R4    R(2,3)                  1.2221         -DE/DX =    0.0                 !
 ! R5    R(2,15)                 1.1005         -DE/DX =    0.0                 !
 ! R6    R(4,9)                  2.0083         -DE/DX =    0.0                 !
 ! R7    R(4,12)                 1.7524         -DE/DX =    0.0                 !
 ! R8    R(4,13)                 1.7451         -DE/DX =    0.0                 !
 ! R9    R(5,6)                  1.0899         -DE/DX =    0.0                 !
 ! R10   R(5,7)                  1.0904         -DE/DX =    0.0                 !
 ! R11   R(5,8)                  1.0886         -DE/DX =    0.0                 !
 ! R12   R(5,9)                  1.4535         -DE/DX =    0.0                 !
 ! R13   R(9,10)                 1.0135         -DE/DX =    0.0                 !
 ! R14   R(9,11)                 1.0135         -DE/DX =    0.0                 !
 ! A1    A(2,1,4)              124.8293         -DE/DX =    0.0                 !
 ! A2    A(2,1,14)             116.8185         -DE/DX =    0.0                 !
 ! A3    A(4,1,14)             117.9451         -DE/DX =    0.0                 !
 ! A4    A(1,2,3)              125.3207         -DE/DX =    0.0                 !
 ! A5    A(1,2,15)             114.5152         -DE/DX =    0.0                 !
 ! A6    A(3,2,15)             120.157          -DE/DX =    0.0                 !
 ! A7    A(1,4,9)              108.3771         -DE/DX =    0.0                 !
 ! A8    A(1,4,12)             119.4937         -DE/DX =    0.0                 !
 ! A9    A(1,4,13)             118.2463         -DE/DX =    0.0                 !
 ! A10   A(9,4,12)              95.9135         -DE/DX =    0.0                 !
 ! A11   A(9,4,13)              98.1543         -DE/DX =    0.0                 !
 ! A12   A(12,4,13)            111.4882         -DE/DX =    0.0                 !
 ! A13   A(6,5,7)              108.7853         -DE/DX =    0.0                 !
 ! A14   A(6,5,8)              109.1981         -DE/DX =    0.0                 !
 ! A15   A(6,5,9)              111.6344         -DE/DX =    0.0                 !
 ! A16   A(7,5,8)              109.0822         -DE/DX =    0.0                 !
 ! A17   A(7,5,9)              108.7784         -DE/DX =    0.0                 !
 ! A18   A(8,5,9)              109.3239         -DE/DX =    0.0                 !
 ! A19   A(4,9,5)              110.2567         -DE/DX =    0.0                 !
 ! A20   A(4,9,10)             108.4194         -DE/DX =    0.0                 !
 ! A21   A(4,9,11)             104.8011         -DE/DX =    0.0                 !
 ! A22   A(5,9,10)             112.7058         -DE/DX =    0.0                 !
 ! A23   A(5,9,11)             111.8772         -DE/DX =    0.0                 !
 ! A24   A(10,9,11)            108.4234         -DE/DX =    0.0                 !
 ! D1    D(4,1,2,3)            175.4886         -DE/DX =    0.0                 !
 ! D2    D(4,1,2,15)            -5.4862         -DE/DX =    0.0                 !
 ! D3    D(14,1,2,3)             2.9878         -DE/DX =    0.0                 !
 ! D4    D(14,1,2,15)         -177.9869         -DE/DX =    0.0                 !
 ! D5    D(2,1,4,9)            -96.5245         -DE/DX =    0.0                 !
 ! D6    D(2,1,4,12)           155.2574         -DE/DX =    0.0                 !
 ! D7    D(2,1,4,13)            13.8491         -DE/DX =    0.0                 !
 ! D8    D(14,1,4,9)            75.899          -DE/DX =    0.0                 !
 ! D9    D(14,1,4,12)          -32.3191         -DE/DX =    0.0                 !
 ! D10   D(14,1,4,13)         -173.7274         -DE/DX =    0.0                 !
 ! D11   D(1,4,9,5)             47.3435         -DE/DX =    0.0                 !
 ! D12   D(1,4,9,10)           171.1624         -DE/DX =    0.0                 !
 ! D13   D(1,4,9,11)           -73.2093         -DE/DX =    0.0                 !
 ! D14   D(12,4,9,5)           171.1211         -DE/DX =    0.0                 !
 ! D15   D(12,4,9,10)          -65.06           -DE/DX =    0.0                 !
 ! D16   D(12,4,9,11)           50.5683         -DE/DX =    0.0                 !
 ! D17   D(13,4,9,5)           -76.1189         -DE/DX =    0.0                 !
 ! D18   D(13,4,9,10)           47.7            -DE/DX =    0.0                 !
 ! D19   D(13,4,9,11)          163.3283         -DE/DX =    0.0                 !
 ! D20   D(6,5,9,4)           -171.7722         -DE/DX =    0.0                 !
 ! D21   D(6,5,9,10)            66.9279         -DE/DX =    0.0                 !
 ! D22   D(6,5,9,11)           -55.5645         -DE/DX =    0.0                 !
 ! D23   D(7,5,9,4)            -51.722          -DE/DX =    0.0                 !
 ! D24   D(7,5,9,10)          -173.0219         -DE/DX =    0.0                 !
 ! D25   D(7,5,9,11)            64.4857         -DE/DX =    0.0                 !
 ! D26   D(8,5,9,4)             67.3001         -DE/DX =    0.0                 !
 ! D27   D(8,5,9,10)           -53.9998         -DE/DX =    0.0                 !
 ! D28   D(8,5,9,11)          -176.4922         -DE/DX =    0.0                 !
 --------------------------------------------------------------------------------
 GradGradGradGradGradGradGradGradGradGradGradGradGradGradGradGradGradGrad

                          Input orientation:                          
 ---------------------------------------------------------------------
 Center     Atomic      Atomic             Coordinates (Angstroms)
 Number     Number       Type             X           Y           Z
 ---------------------------------------------------------------------
      1          6           0        0.826631   -0.055914   -0.290076
      2          6           0        1.589105    1.081892   -0.703155
      3          8           0        2.804703    1.182783   -0.628390
      4          6           0       -0.555844   -0.125908   -0.296651
      5          6           0       -0.564522    1.507109    2.048724
      6          1           0       -0.798832    1.684040    3.098383
      7          1           0        0.514093    1.385210    1.945439
      8          1           0       -0.883497    2.366141    1.461005
      9          7           0       -1.220721    0.310932    1.547410
     10          1           0       -2.229244    0.404300    1.510438
     11          1           0       -0.994796   -0.505280    2.104212
     12         17           0       -1.340058   -1.689281   -0.405685
     13         17           0       -1.440459    1.095597   -1.174533
     14         17           0        1.705467   -1.364922    0.443903
     15          1           0        0.991595    1.901281   -1.130495
 ---------------------------------------------------------------------
                    Distance matrix (angstroms):
                    1          2          3          4          5
     1  C    0.000000
     2  C    1.430596   0.000000
     3  O    2.358304   1.222066   0.000000
     4  C    1.384261   2.494962   3.621602   0.000000
     5  C    3.138205   3.520193   4.315531   2.857902   0.000000
     6  H    4.141403   4.529516   5.208220   3.855024   1.089949
     7  H    2.678068   2.874492   3.451445   2.907785   1.090384
     8  H    3.443424   3.527981   4.400992   3.067086   1.088620
     9  N    2.775352   3.681650   4.658140   2.008346   1.453530
    10  H    3.576593   4.465301   5.524603   2.519317   2.068148
    11  H    3.041733   4.132429   4.975225   2.469969   2.058622
    12  Cl   2.715841   4.043252   5.047513   1.752431   4.103960
    13  Cl   2.692199   3.066047   4.281037   1.745077   3.365411
    14  Cl   1.739132   2.704844   2.974715   2.682742   3.997107
    15  H    2.136382   1.100472   2.013880   2.683162   3.561503
                    6          7          8          9         10
     6  H    0.000000
     7  H    1.772667   0.000000
     8  H    1.775791   1.774869   0.000000
     9  N    2.113984   2.078961   2.084482   0.000000
    10  H    2.491060   2.945727   2.379558   1.013510   0.000000
    11  H    2.412446   2.424027   2.944683   1.013545   1.644313
    12  Cl   4.893946   4.291638   4.487697   2.798156   2.974098
    13  Cl   4.360706   3.693017   2.978346   2.841295   2.882558
    14  Cl   4.755412   3.352195   4.653822   3.548069   4.444052
    15  H    4.597415   3.155267   3.232327   3.820304   4.425978
                   11         12         13         14         15
    11  H    0.000000
    12  Cl   2.796542   0.000000
    13  Cl   3.675812   2.890805   0.000000
    14  Cl   3.284362   3.178401   4.309332   0.000000
    15  H    4.494510   4.342130   2.562411   3.695460   0.000000
 Stoichiometry    C4H6Cl3NO
 Framework group  C1[X(C4H6Cl3NO)]
 Deg. of freedom    39
 Full point group                 C1      NOp   1
 Largest Abelian subgroup         C1      NOp   1
 Largest concise Abelian subgroup C1      NOp   1
                         Standard orientation:                         
 ---------------------------------------------------------------------
 Center     Atomic      Atomic             Coordinates (Angstroms)
 Number     Number       Type             X           Y           Z
 ---------------------------------------------------------------------
      1          6           0       -0.826417    0.056702   -0.291228
      2          6           0       -1.589751   -1.080751   -0.703693
      3          8           0       -2.805528   -1.180220   -0.629957
      4          6           0        0.556140    0.125171   -0.296581
      5          6           0        0.560814   -1.505102    2.050714
      6          1           0        0.793941   -1.681059    3.100799
      7          1           0       -0.517568   -1.382142    1.946268
      8          1           0        0.879400   -2.365172    1.464303
      9          7           0        1.218798   -0.310235    1.548618
     10          1           0        2.227253   -0.404753    1.512707
     11          1           0        0.993245    0.506877    2.104250
     12         17           0        1.342172    1.687554   -0.406706
     13         17           0        1.440240   -1.098332   -1.172195
     14         17           0       -1.704507    1.367533    0.440387
     15          1           0       -0.992738   -1.901296   -1.129508
 ---------------------------------------------------------------------
 Rotational constants (GHZ):           1.0801225           0.8155353           0.6957967

 **********************************************************************

            Population analysis using the SCF density.

 **********************************************************************

 Orbital symmetries:
       Occupied  (A) (A) (A) (A) (A) (A) (A) (A) (A) (A) (A) (A)
                 (A) (A) (A) (A) (A) (A) (A) (A) (A) (A) (A) (A)
                 (A) (A) (A) (A) (A) (A) (A) (A) (A) (A) (A) (A)
                 (A) (A) (A) (A) (A) (A) (A) (A) (A) (A) (A) (A)
       Virtual   (A) (A) (A) (A) (A) (A) (A) (A) (A) (A) (A) (A)
                 (A) (A) (A) (A) (A) (A) (A) (A) (A) (A) (A) (A)
                 (A) (A) (A) (A) (A) (A) (A) (A) (A) (A) (A) (A)
                 (A) (A) (A) (A) (A) (A) (A) (A) (A) (A) (A) (A)
                 (A) (A) (A) (A) (A) (A) (A) (A) (A) (A) (A) (A)
                 (A) (A) (A) (A) (A) (A) (A) (A) (A) (A) (A) (A)
                 (A) (A) (A) (A) (A) (A) (A) (A) (A) (A) (A) (A)
                 (A) (A) (A) (A) (A) (A) (A) (A) (A) (A) (A) (A)
                 (A) (A) (A) (A) (A) (A) (A) (A) (A) (A) (A) (A)
                 (A) (A) (A) (A) (A) (A) (A) (A) (A) (A) (A) (A)
                 (A) (A) (A) (A) (A) (A) (A) (A) (A) (A) (A) (A)
                 (A) (A) (A) (A) (A) (A) (A) (A) (A) (A) (A) (A)
                 (A) (A) (A) (A) (A) (A) (A) (A) (A) (A) (A) (A)
                 (A) (A) (A) (A) (A) (A) (A) (A) (A) (A) (A) (A)
                 (A) (A) (A) (A) (A) (A) (A) (A) (A) (A) (A) (A)
                 (A) (A) (A) (A) (A) (A) (A) (A) (A) (A) (A) (A)
                 (A) (A) (A) (A) (A) (A) (A) (A) (A) (A) (A) (A)
                 (A) (A) (A) (A) (A) (A) (A) (A) (A) (A) (A) (A)
                 (A) (A) (A) (A) (A) (A) (A) (A) (A) (A) (A) (A)
                 (A) (A) (A) (A) (A) (A) (A) (A) (A) (A) (A) (A)
                 (A) (A) (A) (A) (A) (A) (A) (A) (A) (A) (A) (A)
                 (A) (A) (A) (A) (A) (A) (A) (A) (A) (A) (A) (A)
                 (A) (A) (A) (A) (A) (A) (A) (A) (A) (A) (A) (A)
                 (A) (A) (A) (A) (A) (A) (A) (A) (A)
 The electronic state is 1-A.
 Alpha  occ. eigenvalues -- -101.72677-101.72136-101.70211 -19.22986 -14.48992
 Alpha  occ. eigenvalues --  -10.46503 -10.36820 -10.33651 -10.32112  -9.61244
 Alpha  occ. eigenvalues --   -9.60712  -9.58727  -7.35940  -7.35400  -7.34991
 Alpha  occ. eigenvalues --   -7.34970  -7.34470  -7.34431  -7.33383  -7.32506
 Alpha  occ. eigenvalues --   -7.32486  -1.13600  -1.06129  -1.02145  -0.96849
 Alpha  occ. eigenvalues --   -0.94862  -0.84561  -0.79392  -0.73834  -0.64383
 Alpha  occ. eigenvalues --   -0.63378  -0.60439  -0.58784  -0.57389  -0.55820
 Alpha  occ. eigenvalues --   -0.51899  -0.50424  -0.49721  -0.48879  -0.47801
 Alpha  occ. eigenvalues --   -0.44555  -0.43333  -0.42272  -0.41959  -0.39459
 Alpha  occ. eigenvalues --   -0.38923  -0.34281  -0.30005
 Alpha virt. eigenvalues --    0.00674   0.05812   0.06539   0.10733   0.12404
 Alpha virt. eigenvalues --    0.14112   0.15294   0.15763   0.18016   0.18597
 Alpha virt. eigenvalues --    0.20119   0.22180   0.23355   0.23823   0.26791
 Alpha virt. eigenvalues --    0.28082   0.28511   0.29214   0.30718   0.31237
 Alpha virt. eigenvalues --    0.32900   0.33757   0.35861   0.36288   0.37473
 Alpha virt. eigenvalues --    0.37693   0.39174   0.40192   0.40339   0.41238
 Alpha virt. eigenvalues --    0.42500   0.43009   0.43365   0.44040   0.45182
[...]
 ! D24   D(7,5,9,10)          -173.0219         -DE/DX =    0.0                 !
 ! D25   D(7,5,9,11)            64.4857         -DE/DX =    0.0                 !
 ! D26   D(8,5,9,4)             67.3001         -DE/DX =    0.0                 !
 ! D27   D(8,5,9,10)           -53.9998         -DE/DX =    0.0                 !
 ! D28   D(8,5,9,11)          -176.4922         -DE/DX =    0.0                 !
 --------------------------------------------------------------------------------
 GradGradGradGradGradGradGradGradGradGradGradGradGradGradGradGradGradGrad


 ----------------------------------------------------------------------

 Electric dipole moment (input orientation):
 (Debye = 10**-18 statcoulomb cm , SI units = C m)
                  (au)            (Debye)         (10**-30 SI)
   Tot        0.393914D+01      0.100123D+02      0.333974D+02
   x         -0.338908D+01     -0.861419D+01     -0.287339D+02
   y          0.456699D+00      0.116081D+01      0.387206D+01
   z          0.195508D+01      0.496931D+01      0.165758D+02

 Dipole polarizability, Alpha (input orientation).
 (esu units = cm**3 , SI units = C**2 m**2 J**-1)
 Alpha(0;0):
               (au)            (10**-24 esu)      (10**-40 SI)
   iso        0.144432D+03      0.214027D+02      0.238137D+02
   aniso      0.516873D+02      0.765926D+01      0.852208D+01
   xx         0.173587D+03      0.257229D+02      0.286206D+02
   yx         0.451054D+01      0.668393D+00      0.743687D+00
   yy         0.137327D+03      0.203498D+02      0.226422D+02
   zx        -0.108154D+02     -0.160267D+01     -0.178321D+01
   zy        -0.773904D+01     -0.114681D+01     -0.127600D+01
   zz         0.122383D+03      0.181354D+02      0.201783D+02

 ----------------------------------------------------------------------

 Dipole orientation:
     6          0.31067604          0.06297590         -1.62829250
     6          0.51048480          2.38035714         -3.00610781
     8          1.80550985          2.70605486         -4.89025868
     6         -1.02894037         -0.24082245          0.59790058
     6          2.98171928          2.30246188          3.16954669
     1          4.48685428          2.37431929          4.57375099
     1          3.82839314          2.23268383          1.29230259
     1          1.82980781          3.99979591          3.32513170
     7          1.38937381          0.08949168          3.50416476
     1          0.37799871          0.14539761          5.12965053
     1          2.40756069         -1.53260093          3.48025018
    17         -2.15199452         -3.24353245          1.42812551
    17         -3.14707148          2.12764940          1.48039828
    17          2.17830235         -2.43856712         -2.65553533
     1         -0.65163833          3.93322461         -2.25593016

 Electric dipole moment (dipole orientation):
 (Debye = 10**-18 statcoulomb cm , SI units = C m)
                  (au)            (Debye)         (10**-30 SI)
   Tot        0.393914D+01      0.100123D+02      0.333974D+02
   x          0.000000D+00      0.000000D+00      0.000000D+00
   y          0.000000D+00      0.000000D+00      0.000000D+00
   z          0.393914D+01      0.100123D+02      0.333974D+02

 Dipole polarizability, Alpha (dipole orientation).
 (esu units = cm**3 , SI units = C**2 m**2 J**-1)
 Alpha(0;0):
               (au)            (10**-24 esu)      (10**-40 SI)
   iso        0.144432D+03      0.214027D+02      0.238137D+02
   aniso      0.516873D+02      0.765926D+01      0.852208D+01
   xx         0.125536D+03      0.186025D+02      0.206981D+02
   yx        -0.153465D+01     -0.227411D+00     -0.253029D+00
   yy         0.139829D+03      0.207205D+02      0.230547D+02
   zx        -0.178741D+02     -0.264867D+01     -0.294704D+01
   zy        -0.101699D+02     -0.150703D+01     -0.167680D+01
   zz         0.167932D+03      0.248850D+02      0.276883D+02

 ----------------------------------------------------------------------
 1\1\GINC-NODE-SW-034\Freq\RwB97XD\def2TZVP\C4H6Cl3N1O1\TLA25\28-Feb-20
 21\0\\#N Geom=AllCheck Guess=TCheck SCRF=Check GenChk RwB97XD/def2TZVP
  Freq\\1_iteration/TS-993-1.out\\0,1\C,0.8266306905,-0.0559137643,-0.2
 900758568\C,1.5891054573,1.0818918784,-0.7031548204\O,2.8047030536,1.1
 827826208,-0.6283899604\C,-0.5558442873,-0.1259079383,-0.2966513778\C,
 -0.5645220972,1.5071088299,2.0487242244\H,-0.7988324074,1.6840396979,3
 .098382658\H,0.5140927186,1.3852102302,1.945439258\H,-0.8834974944,2.3
 661405984,1.4610051666\N,-1.2207208665,0.3109323165,1.5474101218\H,-2.
 2292438933,0.4043000126,1.5104380074\H,-0.9947960449,-0.5052801551,2.1
 042124578\Cl,-1.3400578201,-1.6892809368,-0.4056851239\Cl,-1.440459006
 7,1.0955970273,-1.1745328726\Cl,1.7054673496,-1.3649217686,0.443902855
 9\H,0.991594648,1.9012813511,-1.130494738\\Version=ES64L-G16RevA.03\St
 ate=1-A\HF=-1666.6038945\RMSD=2.369e-09\RMSF=1.751e-06\ZeroPoint=0.101
 3817\Thermal=0.1120479\Dipole=-3.3890839,0.4566993,1.9550777\DipoleDer
 iv=-1.8295996,-0.7800762,0.8969035,-1.6863431,-0.3440193,0.1727214,0.6
 008502,-0.2266112,-0.4546645,2.743321,0.9446146,-0.5812226,1.4158566,1
 .0063909,-0.5730734,-0.386093,-0.321718,0.3855804,-2.5122822,-0.689794
 1,0.4378127,-0.3579222,-0.6853449,0.143184,-0.0309796,0.0522577,-0.483
 8973,3.0229383,0.2441147,-0.7376901,-0.0232638,1.6661587,0.1272657,-1.
 1370834,0.1895022,2.0684879,0.0677446,0.1715349,0.1940944,-0.0402069,0
 .3621342,0.2069404,0.0418853,-0.0647,-0.0100367,0.1513076,-0.0289754,0
 .0016793,0.0365236,0.0205988,-0.1292036,0.0511008,-0.0784506,-0.115146
 3,-0.0539361,-0.0121032,-0.0204516,0.0610394,0.0435394,-0.0309855,0.02
 70974,0.0106173,0.1445035,0.0801642,0.0353649,-0.0737233,0.0173559,-0.
 0182236,0.0247234,-0.0616397,0.1156706,0.0491713,-1.0388991,-0.0875125
 ,0.4251571,0.0826697,-0.5336189,-0.2096111,1.016257,-0.2272911,-1.2381
 491,0.2423079,-0.0332139,-0.0696123,0.0002312,0.1844656,-0.0263678,0.1
 437816,-0.0102195,0.1614652,0.1885678,-0.0282499,0.0032971,0.0463587,0
 .1689345,-0.0666596,-0.0205239,0.0215264,0.2133217,-0.3513698,-0.37734
 38,-0.0782581,-0.276162,-0.875189,-0.2024082,0.1438495,-0.0121661,-0.2
 548265,-0.3990465,0.2817583,-0.2214376,0.2829792,-0.4985172,0.3184289,
 -0.1149972,0.2257451,-0.3543439,-0.3526351,0.2598507,-0.1122695,0.3047
 239,-0.4117327,0.140087,-0.2142709,0.2280659,-0.1539624,0.041417,0.100
 0308,-0.0642789,0.1361598,-0.0855765,0.1049584,-0.0592341,0.0977712,0.
 0424968\Polar=173.5869322,4.5105364,137.3270069,-10.8153552,-7.739041,
 122.3834548\Quadrupole=-9.3826369,1.7859582,7.5966786,-4.483304,-2.055
 0523,1.5430203\PG=C01 [X(C4H6Cl3N1O1)]\NImag=1\\0.62709236,0.05054191,
 0.41900312,0.00661861,-0.14193440,0.16274931,-0.07131493,-0.04045094,0
 .02193267,0.88307342,-0.03780047,-0.19984073,0.06138410,-0.00800285,0.
 52172370,0.01472959,0.06056034,-0.08346599,0.07089196,-0.15185313,0.26
 148931,-0.09956940,-0.05366033,0.00975396,-0.64484914,-0.00963898,-0.0
 5135795,0.75634319,-0.05275384,-0.00182588,0.00378995,-0.03098645,-0.0
 9405050,0.00882024,0.05890860,0.08040255,0.01195556,0.00243889,0.01744
 861,-0.04262923,0.01116400,-0.07681084,0.04583172,-0.01707777,0.040492
 18,-0.32593821,0.02416475,-0.02879703,-0.07809838,-0.05430045,0.018346
 72,0.04879140,0.01025487,-0.00055443,0.51343812,-0.02859384,-0.0778474
 8,0.01155649,-0.01899733,0.01278694,-0.00404152,-0.00456616,-0.0064033
 8,0.00381862,0.03284873,0.29408456,-0.03787319,-0.01403617,-0.03827951
 ,0.02653280,0.01362113,-0.00505033,-0.01478523,0.00000604,0.00297919,0
 .10064077,-0.07114390,0.07143166,-0.00594105,-0.00232208,0.00482174,0.
 00379196,0.00394023,0.00078767,-0.00253035,-0.00085964,-0.00079915,0.0
 1037462,-0.00073835,-0.01249061,0.57690149,-0.00616605,-0.00260865,0.0
 0435004,0.00394929,0.00451706,-0.00024092,-0.00293212,-0.00099589,-0.0
 0029029,0.00713839,-0.00519826,-0.01791103,-0.04759691,0.53601558,-0.0
 0055752,0.00108706,-0.00065006,-0.00028914,-0.00057011,0.00037278,0.00
 056095,0.00021527,-0.00005768,-0.00709717,-0.01006697,-0.00137804,-0.0
 0906541,-0.03341127,0.58625206,0.00268115,0.00136369,-0.00092075,-0.00
 128305,-0.00120162,-0.00031022,0.00097854,0.00027490,0.00024410,-0.004
 05958,0.00066424,0.00452821,-0.06113603,0.01054562,0.06313325,0.062413
 54,0.00227770,0.00189515,-0.00045684,-0.00130686,-0.00152767,0.0003176
 4,0.00124284,0.00038220,-0.00004068,-0.00501157,-0.00012378,0.00750615
 ,0.00872722,-0.05183766,-0.03201807,-0.00544878,0.05957152,0.00071284,
 0.00068967,-0.00027109,-0.00060804,-0.00046572,0.00014274,0.00045931,0
 .00011271,0.00000410,-0.00192684,0.00096678,0.00360177,0.06093155,-0.0
 3600827,-0.30075748,-0.06315099,0.04498666,0.32239626,0.00200029,0.001
 13299,-0.00039026,-0.00096842,-0.00083200,0.00010958,0.00036675,0.0001
 8368,0.00028444,-0.00224916,0.00137840,0.00315199,-0.30901200,0.034462
 31,0.02513878,-0.00570287,0.00177976,0.00020255,0.33891350,0.00057471,
 0.00024622,-0.00010912,0.00040690,0.00004396,-0.00031782,-0.00015260,-
 0.00002866,0.00001799,-0.00158067,0.00027753,0.00146453,0.04243402,-0.
 05682297,-0.00293962,0.00393759,-0.00054045,0.00059926,-0.03159063,0.0
 6073741,0.00019964,-0.00082872,0.00052777,0.00152399,0.00043312,-0.001
 61719,-0.00066375,-0.00014448,0.00004033,-0.00150543,-0.00071613,-0.00
 022162,0.02853842,-0.00362479,-0.05083165,0.03084370,-0.00427718,-0.00
 111433,-0.02628078,0.00808869,0.05126868,0.00025049,0.00032572,0.00006
 080,-0.00027438,0.00001625,0.00010735,0.00025492,0.00001888,-0.0000461
 9,-0.00058497,0.00033495,0.00064738,-0.07827694,0.06982900,-0.04896793
 ,0.00239742,-0.00665138,0.00459755,-0.00617034,0.02393532,-0.01811822,
 0.07662113,0.00087688,0.00036040,-0.00056817,-0.00029425,-0.00067930,0
 .00003011,0.00024673,0.00015227,-0.00000031,-0.00065845,-0.00040093,0.
 00274306,0.06234380,-0.21218693,0.11305546,-0.00166530,0.00547584,-0.0
 0263091,0.00081512,-0.00106406,0.00103467,-0.06622361,0.23941742,-0.00
 011641,-0.00003080,0.00013893,0.00026582,0.00016622,-0.00008449,-0.000
 22315,-0.00003992,0.00002549,0.00043955,-0.00049039,-0.00016746,-0.047
 38216,0.12104072,-0.13415435,-0.01062492,0.02377244,-0.01431167,0.0014
 3258,-0.00458479,0.00240501,0.05241187,-0.12425690,0.13818011,-0.03155
 065,-0.01287036,0.02888579,0.01610271,0.01729693,-0.00154490,-0.013269
 94,-0.00410088,-0.00103889,-0.01284366,-0.00913623,-0.03056408,-0.1282
 8924,-0.05711900,-0.03570192,0.00294147,0.00409104,-0.00074951,-0.0179
 7882,-0.03605431,-0.01443993,0.00594303,0.00799111,0.00504763,0.683114
 52,0.00693253,0.00650544,-0.00691827,-0.00415899,-0.00515345,0.0001852
 1,0.00236481,0.00111191,0.00033586,-0.00712646,-0.02001817,0.01816860,
 -0.04132773,-0.19170499,-0.04579818,-0.00851421,-0.01335814,-0.0069907
 7,-0.00420800,0.00176160,0.00162136,-0.01787642,-0.02986103,-0.0133639
 2,-0.02211362,0.63062541,0.03212692,0.01603428,-0.01853852,-0.01849353
 ,-0.01895874,0.00237020,0.01323197,0.00396574,0.00078214,-0.03514872,0
 .01894717,0.04622966,-0.01733106,-0.01846605,-0.09827425,-0.02279583,-
 0.03693199,-0.00994883,-0.00402302,-0.00070978,0.00068505,0.01024716,0
 .01373611,0.00903576,0.12537151,-0.13504245,0.29082845,0.00155433,0.00
 111072,-0.00017498,-0.00106694,-0.00098560,0.00012416,0.00091895,0.000
 24138,0.00010461,-0.00402680,0.00116175,0.00392990,-0.01142267,0.00251
 776,0.00194040,0.00042722,0.00033939,-0.00016164,0.00053413,-0.0022078
 6,-0.00076473,0.00067591,0.00024705,0.00029528,-0.43172309,0.03863991,
 -0.03262784,0.44961096,0.00097138,0.00035476,-0.00082328,-0.00056843,-
 0.00065182,-0.00016009,0.00043825,0.00016995,0.00010416,0.00113953,0.0
 0061337,0.00157482,-0.03409538,0.00407006,-0.00085648,0.00029945,0.000
 38637,-0.00027649,-0.00274151,-0.00503197,-0.00244969,0.00015320,0.000
 65867,0.00074084,0.04170724,-0.06537665,0.00754684,-0.03879645,0.06747
 735,0.00707919,0.00352660,-0.00559546,-0.00368439,-0.00406683,0.000533
 87,0.00332941,0.00103010,0.00014064,0.00616565,0.00077866,0.00917771,-
 0.01617322,-0.00035581,-0.00291799,-0.00045562,0.00000123,-0.00013105,
 0.00101865,-0.00255847,-0.00132245,0.00106432,0.00015865,0.00078610,0.
 00255437,0.00448263,-0.03258936,0.02460626,-0.00450234,0.03383969,-0.0
 0154452,-0.00097380,0.00082160,0.00062998,0.00054666,-0.00014872,-0.00
 058214,-0.00005241,-0.00007968,0.00317341,-0.00332288,-0.00088861,0.00
 495119,-0.01497343,0.01166077,0.00032242,0.00051163,-0.00030403,0.0002
 7860,-0.00015122,0.00036638,-0.00092340,-0.00343388,-0.00103732,-0.079
 43457,0.05977630,-0.04953211,-0.00597527,0.03213220,-0.02282054,0.0796
 7280,0.00196507,0.00129306,-0.00056354,-0.00151565,-0.00138188,0.00021
 077,0.00128682,0.00029766,0.00009637,-0.00470782,0.00449240,0.00397448
 ,0.00662317,-0.02388318,0.01644643,0.00075425,0.00091215,-0.00017406,-
 0.00034387,0.00083100,0.00039473,-0.00347453,-0.00268684,-0.00285849,0
 .07102075,-0.29392279,0.16151364,-0.00162843,-0.00151157,0.00169552,-0
 .06982103,0.31600709,0.00097146,-0.00042180,-0.00012855,0.00000029,0.0
 0031191,-0.00008793,-0.00001623,-0.00019093,0.00010770,-0.00407810,0.0
 0864793,-0.00311556,0.00480418,-0.01733447,0.00789049,0.00042358,-0.00
 033336,0.00072386,-0.00043767,0.00075478,0.00048929,-0.00199310,-0.002
 64556,-0.00084847,-0.06493975,0.19086868,-0.15904438,0.00305964,-0.001
 13919,-0.00129035,0.06155174,-0.17779301,0.15815587,-0.02055721,-0.035
 01734,0.00003658,0.00366573,0.00643699,-0.00874234,-0.00616525,-0.0025
 8405,0.00244047,-0.05876159,-0.03263972,0.00118434,0.00058456,0.000288
 82,-0.00068257,-0.00005253,-0.00035752,-0.00009639,0.00001389,0.000009
 54,0.00029034,-0.00003023,-0.00006554,0.00002785,0.00416267,-0.0018652
 6,-0.00215615,-0.00006915,-0.00031316,-0.00128497,-0.00011837,-0.00033
 949,-0.00020442,0.07639378,-0.01456888,-0.01865118,0.00009303,0.003879
 66,0.00465107,-0.00615995,-0.00442526,-0.00119057,0.00133844,-0.051303
 88,-0.10400043,0.00590056,0.00346988,0.00165645,-0.00535014,-0.0010146
 2,-0.00191669,-0.00059876,-0.00017345,0.00015855,0.00045740,0.00006761
 ,-0.00001830,0.00042827,-0.00275873,-0.01919904,-0.01548620,-0.0001038
 0,-0.00099391,-0.00109890,-0.00043162,-0.00081301,-0.00078145,0.064976
 95,0.17701597,0.00632019,0.00583724,0.00379083,-0.00388127,-0.00160781
 ,0.00406756,0.00288843,0.00001983,-0.00072432,-0.00905039,-0.00294318,
 -0.02454319,0.00322744,0.00089348,-0.00429625,-0.00088138,-0.00170680,
 -0.00046978,-0.00011959,0.00012739,0.00002979,0.00005731,-0.00025300,0
 .00008671,-0.00447894,-0.02171875,-0.01230517,-0.00013053,-0.00040243,
 -0.00041628,-0.00050471,-0.00079246,0.00073823,0.00783748,0.00979457,0
 .03389862,-0.01465942,0.02083259,-0.01614052,-0.00235615,0.00058846,0.
 00037838,-0.00451029,0.00052694,-0.00103475,-0.07224875,0.03524716,-0.
 02720238,-0.00005813,0.00017892,-0.00007059,0.00008724,-0.00021118,0.0
 0006820,0.00003539,0.00005278,0.00002890,-0.00001069,-0.00010900,-0.00
 045997,0.00158761,0.00026623,-0.00040491,0.00023070,-0.00006711,-0.000
 53349,0.00027762,-0.00015171,0.00037042,0.00734879,-0.00010051,0.00192
 174,0.09244364,0.01314003,-0.00274431,0.00707280,-0.00610872,-0.006861
 14,0.00063231,0.00204142,0.00190976,-0.00029382,0.04516639,-0.08292425
 ,0.03614462,-0.00047180,-0.00091368,0.00011017,0.00000301,0.00079331,-
 0.00007955,-0.00002630,0.00003526,-0.00003524,-0.00016383,0.00067575,-
 0.00065538,0.00207075,-0.00254853,0.00734814,-0.00014746,-0.00041383,0
 .00050801,-0.00051044,0.00087840,0.00077853,0.00471518,-0.03936187,0.0
 1508223,-0.05962304,0.12872679,-0.00296653,0.00646388,-0.00207537,0.00
 060832,0.00065797,-0.00156351,-0.00011326,-0.00020424,0.00057174,-0.03
 772970,0.03902268,-0.05174795,0.00083095,0.00202274,-0.00154282,-0.000
 19726,-0.00097740,0.00005223,-0.00021281,0.00006053,-0.00021476,-0.000
 11326,-0.00043598,-0.00098450,-0.00704263,0.01309485,-0.02223861,-0.00
 026229,0.00059666,-0.00049103,0.00110020,-0.00227350,-0.00378931,0.000
 20529,0.00968428,0.00098360,0.04694377,-0.06831305,0.08012854,-0.07278
 519,0.05300040,-0.02970417,-0.00318813,-0.00178690,-0.00050011,0.00411
 796,-0.00530145,0.00293928,-0.01612842,0.02639136,-0.01808043,-0.00005
 961,-0.00017430,0.00009986,0.00004028,0.00008257,0.00006845,-0.0000569
 0,0.00039460,0.00001061,0.00015344,-0.00007367,-0.00010249,0.00069027,
 -0.00075168,0.00222916,0.00037854,-0.00023006,-0.00074383,-0.00077008,
 0.00040989,0.00053242,-0.00665767,0.00198377,-0.00292611,-0.00449613,0
 .00130881,-0.00128657,0.09889232,0.05257516,-0.11099952,0.04907500,0.0
 2544444,-0.03103038,0.01947758,0.00001990,0.00296677,-0.00308914,0.001
 64997,-0.01296696,0.01209068,0.00004304,0.00012729,0.00013929,-0.00004
 940,-0.00019563,-0.00010856,0.00008328,-0.00056130,0.00000429,-0.00022
 676,0.00008054,0.00009800,0.00055384,0.00076993,-0.00429455,-0.0003705
 4,0.00021954,0.00023538,0.00065519,-0.00051657,-0.00062575,-0.00305524
 ,0.00256854,-0.00211253,0.00094053,0.00058015,0.00105340,-0.07454087,0
 .15178172,-0.03376401,0.04952738,-0.04340272,-0.01249807,0.01524553,-0
 .00496967,0.00055398,-0.00325732,-0.00108622,0.00146619,0.00559253,-0.
 00808776,-0.00064386,-0.00067188,0.00028747,0.00021124,0.00018728,0.00
 007387,0.00016951,-0.00000063,-0.00019494,0.00001059,0.00004815,-0.000
 07075,-0.00180249,0.00094084,0.00332022,0.00010062,0.00003602,0.000399
 85,-0.00020942,0.00015054,0.00020306,0.00044669,0.00143109,-0.00045888
 ,-0.00278310,0.00246359,0.00215059,0.04745549,-0.07432333,0.04961353,0
 .01028195,-0.00717793,0.00319597,-0.10386427,0.08572336,-0.04287117,-0
 .04029521,0.02622946,-0.01761786,-0.00083801,-0.00003210,0.00126914,0.
 00012218,0.00005171,-0.00010176,-0.00005523,-0.00006485,-0.00004301,-0
 .00000404,-0.00000818,-0.00002915,-0.00002538,0.00000302,0.00002583,0.
 00054769,-0.00003742,-0.00069356,-0.00004682,-0.00002916,-0.00012181,0
 .00004234,-0.00007744,-0.00004446,0.00024258,0.00050288,-0.00027968,-0
 .00367143,-0.00139400,0.00023578,-0.00013067,-0.00372254,0.00128664,0.
 13769433,0.01002770,-0.01514039,0.01405219,0.07871016,-0.20254584,0.07
 253924,0.00882608,0.01710181,0.00147768,0.00232669,-0.00237117,-0.0001
 0356,-0.00016947,-0.00023422,-0.00004283,0.00005116,0.00008349,-0.0000
 2201,0.00008021,-0.00004212,0.00004197,-0.00006440,0.00007649,0.000034
 08,-0.00057852,0.00036850,0.00079784,-0.00001783,0.00002967,0.00016557
 ,0.00004873,0.00000407,-0.00009633,-0.00019016,0.00009442,-0.00021779,
 0.00162894,0.00216819,-0.00045283,-0.00071250,-0.00282411,0.00263022,-
 0.09996678,0.20323120,-0.00543635,0.01108653,0.00775180,-0.03967218,0.
 07453837,-0.09532653,-0.00945017,0.00295478,0.01608694,-0.00117106,0.0
 0007122,-0.00082858,-0.00005648,0.00000778,0.00005778,-0.00004711,-0.0
 0002907,0.00000939,-0.00004396,0.00010705,0.00007100,0.00003437,-0.000
 01540,-0.00003641,0.00044373,0.00013430,-0.00031237,-0.00003887,0.0000
 1065,-0.00012388,0.00002444,-0.00002740,-0.00000394,0.00069779,0.00034
 776,-0.00038147,-0.00108170,-0.00076338,0.00076118,0.00000843,0.002380
 24,0.00222234,0.05578911,-0.09080344,0.07005273\\-0.00000109,0.0000003
 2,-0.00000024,0.00000041,0.00000083,-0.00000110,0.00000032,0.00000186,
 -0.00000272,0.00000018,0.00000097,0.00000064,0.00000307,-0.00000107,-0
 .00000092,0.00000232,0.00000001,0.00000049,0.00000162,-0.00000180,-0.0
 0000150,0.00000066,-0.00000054,0.00000124,0.00000221,-0.00000037,0.000
 00276,0.00000019,0.00000029,0.00000275,0.00000160,0.00000010,-0.000001
 13,-0.00000331,0.00000171,0.00000034,0.00000152,0.00000070,0.00000051,
 -0.00000480,-0.00000203,0.00000014,-0.00000488,-0.00000097,-0.00000125
 \\\@


       THE DEATH-KNELL OF THE ATOM

 SO THE ATOMS IN TURN, WE NOW CLEARLY DISCERN,
 FLY TO BITS WITH THE UTMOST FACILITY;
 THEY WEND ON THEIR WAY, AND, IN SPLITTING, DISPLAY
 AN ABSOLUTE LACK OF STABILITY.

          SIR WM. RAMSAY, 1905
 Job cpu time:       0 days  2 hours 19 minutes 14.5 seconds.
 Elapsed time:       0 days  0 hours  8 minutes 45.0 seconds.
 File lengths (MBytes):  RWF=    235 Int=      0 D2E=      0 Chk=     17 Scr=      1
 Normal termination of Gaussian 16 at Sun Feb 28 12:51:18 2021.
