 Entering Gaussian System, Link 0=g16
 Initial command:
 /apps/gaussian/16/A.03/g16/l1.exe "/beegfs/scratch/user/q/tla25/Gau-61277.inp" -scrdir="/beegfs/scratch/user/q/tla25/"
 Entering Link 1 = /apps/gaussian/16/A.03/g16/l1.exe PID=     61278.
  
 Copyright (c) 1988,1990,1992,1993,1995,1998,2003,2009,2016,
            Gaussian, Inc.  All Rights Reserved.
  
 This is part of the Gaussian(R) 16 program.  It is based on
 the Gaussian(R) 09 system (copyright 2009, Gaussian, Inc.),
 the Gaussian(R) 03 system (copyright 2003, Gaussian, Inc.),
 the Gaussian(R) 98 system (copyright 1998, Gaussian, Inc.),
 the Gaussian(R) 94 system (copyright 1995, Gaussian, Inc.),
 the Gaussian 92(TM) system (copyright 1992, Gaussian, Inc.),
 the Gaussian 90(TM) system (copyright 1990, Gaussian, Inc.),
 the Gaussian 88(TM) system (copyright 1988, Gaussian, Inc.),
 the Gaussian 86(TM) system (copyright 1986, Carnegie Mellon
 University), and the Gaussian 82(TM) system (copyright 1983,
 Carnegie Mellon University). Gaussian is a federally registered
 trademark of Gaussian, Inc.
  
 This software contains proprietary and confidential information,
 including trade secrets, belonging to Gaussian, Inc.
  
 This software is provided under written license and may be
 used, copied, transmitted, or stored only in accord with that
 written license.
  
 The following legend is applicable only to US Government
 contracts under FAR:
  
                    RESTRICTED RIGHTS LEGEND
  
 Use, reproduction and disclosure by the US Government is
 subject to restrictions as set forth in subparagraphs (a)
 and (c) of the Commercial Computer Software - Restricted
 Rights clause in FAR 52.227-19.
  
 Gaussian, Inc.
 340 Quinnipiac St., Bldg. 40, Wallingford CT 06492
  
  
 ---------------------------------------------------------------
 Warning -- This program may not be used in any manner that
 competes with the business of Gaussian, Inc. or will provide
 assistance to any competitor of Gaussian, Inc.  The licensee
 of this program is prohibited from giving any competitor of
 Gaussian, Inc. access to this program.  By using this program,
 the user acknowledges that Gaussian, Inc. is engaged in the
 business of creating and licensing software in the field of
 computational chemistry and represents and warrants to the
 licensee that it is not a competitor of Gaussian, Inc. and that
 it will not use this program in any manner prohibited above.
 ---------------------------------------------------------------
  

 Cite this work as:
 Gaussian 16, Revision A.03,
 M. J. Frisch, G. W. Trucks, H. B. Schlegel, G. E. Scuseria, 
 M. A. Robb, J. R. Cheeseman, G. Scalmani, V. Barone, 
 G. A. Petersson, H. Nakatsuji, X. Li, M. Caricato, A. V. Marenich, 
 J. Bloino, B. G. Janesko, R. Gomperts, B. Mennucci, H. P. Hratchian, 
 J. V. Ortiz, A. F. Izmaylov, J. L. Sonnenberg, D. Williams-Young, 
 F. Ding, F. Lipparini, F. Egidi, J. Goings, B. Peng, A. Petrone, 
 T. Henderson, D. Ranasinghe, V. G. Zakrzewski, J. Gao, N. Rega, 
 G. Zheng, W. Liang, M. Hada, M. Ehara, K. Toyota, R. Fukuda, 
 J. Hasegawa, M. Ishida, T. Nakajima, Y. Honda, O. Kitao, H. Nakai, 
 T. Vreven, K. Throssell, J. A. Montgomery, Jr., J. E. Peralta, 
 F. Ogliaro, M. J. Bearpark, J. J. Heyd, E. N. Brothers, K. N. Kudin, 
 V. N. Staroverov, T. A. Keith, R. Kobayashi, J. Normand, 
 K. Raghavachari, A. P. Rendell, J. C. Burant, S. S. Iyengar, 
 J. Tomasi, M. Cossi, J. M. Millam, M. Klene, C. Adamo, R. Cammi, 
 J. W. Ochterski, R. L. Martin, K. Morokuma, O. Farkas, 
 J. B. Foresman, and D. J. Fox, Gaussian, Inc., Wallingford CT, 2016.
 
 ******************************************
 Gaussian 16:  ES64L-G16RevA.03 25-Dec-2016
                30-Jan-2021 
 ******************************************
 %nprocshared=16
 Will use up to   16 processors via shared memory.
 %mem=48GB
 ----------------------------------------------------------------------
 # wB97XD def2tzvp, opt=(ts, noeigen, calcfc, maxcycles=70, maxstep=1),
  freq=noraman, scrf=(iefpcm, solvent=water)
 ----------------------------------------------------------------------
 1/5=1,6=70,8=1,10=4,11=1,18=20,26=3,38=1/1,3;
 2/9=110,12=2,17=6,18=5,40=1/2;
 3/5=44,7=101,11=2,25=1,30=1,70=2201,71=2,72=1,74=-58,140=1/1,2,3;
 4//1;
 5/5=2,38=5,53=1/2;
 8/6=4,10=90,11=11/1;
 11/6=1,8=1,9=11,15=111,16=1/1,2,10;
 10/6=1,13=1/2;
 6/7=2,8=2,9=2,10=2,28=1/1;
 7/10=1,18=20,25=1/1,2,3,16;
 1/5=1,6=70,8=1,10=4,11=1,18=20,26=3/3(2);
 2/9=110/2;
 99//99;
 2/9=110/2;
 3/5=44,7=101,11=2,25=1,30=1,70=2205,71=1,72=1,74=-58/1,2,3;
 4/5=5,16=3,69=1/1;
 5/5=2,38=5,53=1/2;
 7//1,2,3,16;
 1/5=1,6=70,8=1,11=1,18=20,26=3/3(-5);
 2/9=110/2;
 6/7=2,8=2,9=2,10=2,19=2,28=1/1;
 99/9=1/99;
 -----------------------
 0_iteration/TS-91-0.out
 -----------------------
 Symbolic Z-matrix:
 Charge =  0 Multiplicity = 1
 C                    -1.33054  -0.9201    0.15485 
 C                    -2.73924  -0.7365    0.07942 
 O                    -3.3202    0.37562   0.11171 
 C                    -0.43327   0.15249   0.40725 
 C                     0.01884   2.61255  -1.10938 
 H                    -0.17713   3.1096   -2.06031 
 H                    -0.28601   3.27213  -0.30054 
 H                     1.08719   2.41456  -1.02383 
 N                    -0.70956   1.35059  -1.00902 
 H                    -1.71589   1.4715   -0.8965 
 H                    -0.55947   0.76663  -1.82256 
 C                     1.02471  -0.18566   0.23219 
 C                     1.4489   -0.87935  -0.90251 
 C                     2.78363  -1.19317  -1.09294 
 C                     3.72899  -0.82206  -0.146 
 C                     3.32345  -0.1321    0.98447 
 C                     1.9848    0.18902   1.16759 
 H                     0.7244   -1.17874  -1.65021 
 H                     3.08723  -1.72779  -1.98416 
 H                     4.77334  -1.06719  -0.29181 
 H                     4.05001   0.16338   1.73086 
 H                     1.69676   0.72929   2.05855 
 C                    -0.74286   1.09279   1.55529 
 H                    -0.55916   0.56629   2.49316 
 H                    -0.12224   1.98881   1.54666 
 H                    -1.79109   1.37587   1.52563 
 H                    -0.92715  -1.85761  -0.2025 
 N                    -3.50694  -1.85954  -0.0921 
 H                    -3.11144  -2.7803   -0.07497 
 H                    -4.49678  -1.75624  -0.21473 
 
 Add virtual bond connecting atoms N9         and C4         Dist= 3.54D+00.

 GradGradGradGradGradGradGradGradGradGradGradGradGradGradGradGradGradGrad
 Berny optimization.
 Initialization pass.
                           ----------------------------
                           !    Initial Parameters    !
                           ! (Angstroms and Degrees)  !
 --------------------------                            --------------------------
 ! Name  Definition              Value          Derivative Info.                !
 --------------------------------------------------------------------------------
 ! R1    R(1,2)                  1.4226         calculate D2E/DX2 analytically  !
 ! R2    R(1,4)                  1.421          calculate D2E/DX2 analytically  !
 ! R3    R(1,27)                 1.0814         calculate D2E/DX2 analytically  !
 ! R4    R(2,3)                  1.2551         calculate D2E/DX2 analytically  !
 ! R5    R(2,28)                 1.3711         calculate D2E/DX2 analytically  !
 ! R6    R(4,9)                  1.8755         calculate D2E/DX2 analytically  !
 ! R7    R(4,12)                 1.5069         calculate D2E/DX2 analytically  !
 ! R8    R(4,23)                 1.5159         calculate D2E/DX2 analytically  !
 ! R9    R(5,6)                  1.0907         calculate D2E/DX2 analytically  !
 ! R10   R(5,7)                  1.0873         calculate D2E/DX2 analytically  !
 ! R11   R(5,8)                  1.0899         calculate D2E/DX2 analytically  !
 ! R12   R(5,9)                  1.4605         calculate D2E/DX2 analytically  !
 ! R13   R(9,10)                 1.0198         calculate D2E/DX2 analytically  !
 ! R14   R(9,11)                 1.0126         calculate D2E/DX2 analytically  !
 ! R15   R(12,13)                1.396          calculate D2E/DX2 analytically  !
 ! R16   R(12,17)                1.3918         calculate D2E/DX2 analytically  !
 ! R17   R(13,14)                1.3843         calculate D2E/DX2 analytically  !
 ! R18   R(13,18)                1.0833         calculate D2E/DX2 analytically  !
 ! R19   R(14,15)                1.3886         calculate D2E/DX2 analytically  !
 ! R20   R(14,19)                1.0827         calculate D2E/DX2 analytically  !
 ! R21   R(15,16)                1.3851         calculate D2E/DX2 analytically  !
 ! R22   R(15,20)                1.0826         calculate D2E/DX2 analytically  !
 ! R23   R(16,17)                1.3888         calculate D2E/DX2 analytically  !
 ! R24   R(16,21)                1.0827         calculate D2E/DX2 analytically  !
 ! R25   R(17,22)                1.081          calculate D2E/DX2 analytically  !
 ! R26   R(23,24)                1.0911         calculate D2E/DX2 analytically  !
 ! R27   R(23,25)                1.09           calculate D2E/DX2 analytically  !
 ! R28   R(23,26)                1.0862         calculate D2E/DX2 analytically  !
 ! R29   R(28,29)                1.0023         calculate D2E/DX2 analytically  !
 ! R30   R(28,30)                1.0027         calculate D2E/DX2 analytically  !
 ! A1    A(2,1,4)              122.4974         calculate D2E/DX2 analytically  !
 ! A2    A(2,1,27)             117.6298         calculate D2E/DX2 analytically  !
 ! A3    A(4,1,27)             118.5253         calculate D2E/DX2 analytically  !
 ! A4    A(1,2,3)              124.8428         calculate D2E/DX2 analytically  !
 ! A5    A(1,2,28)             117.0876         calculate D2E/DX2 analytically  !
 ! A6    A(3,2,28)             118.0207         calculate D2E/DX2 analytically  !
 ! A7    A(1,4,9)              104.7756         calculate D2E/DX2 analytically  !
 ! A8    A(1,4,12)             114.893          calculate D2E/DX2 analytically  !
 ! A9    A(1,4,23)             118.2786         calculate D2E/DX2 analytically  !
 ! A10   A(9,4,12)             101.4292         calculate D2E/DX2 analytically  !
 ! A11   A(9,4,23)              98.3692         calculate D2E/DX2 analytically  !
 ! A12   A(12,4,23)            115.1363         calculate D2E/DX2 analytically  !
 ! A13   A(6,5,7)              108.7679         calculate D2E/DX2 analytically  !
 ! A14   A(6,5,8)              109.1065         calculate D2E/DX2 analytically  !
 ! A15   A(6,5,9)              111.3486         calculate D2E/DX2 analytically  !
 ! A16   A(7,5,8)              109.0649         calculate D2E/DX2 analytically  !
 ! A17   A(7,5,9)              109.4632         calculate D2E/DX2 analytically  !
 ! A18   A(8,5,9)              109.0567         calculate D2E/DX2 analytically  !
 ! A19   A(4,9,5)              122.0306         calculate D2E/DX2 analytically  !
 ! A20   A(4,9,10)              97.9199         calculate D2E/DX2 analytically  !
 ! A21   A(4,9,11)             102.5007         calculate D2E/DX2 analytically  !
 ! A22   A(5,9,10)             113.4078         calculate D2E/DX2 analytically  !
 ! A23   A(5,9,11)             111.6633         calculate D2E/DX2 analytically  !
 ! A24   A(10,9,11)            107.6548         calculate D2E/DX2 analytically  !
 ! A25   A(4,12,13)            119.9969         calculate D2E/DX2 analytically  !
 ! A26   A(4,12,17)            121.9339         calculate D2E/DX2 analytically  !
 ! A27   A(13,12,17)           118.0639         calculate D2E/DX2 analytically  !
 ! A28   A(12,13,14)           121.1625         calculate D2E/DX2 analytically  !
 ! A29   A(12,13,18)           119.6785         calculate D2E/DX2 analytically  !
 ! A30   A(14,13,18)           119.159          calculate D2E/DX2 analytically  !
 ! A31   A(13,14,15)           120.1351         calculate D2E/DX2 analytically  !
 ! A32   A(13,14,19)           119.7056         calculate D2E/DX2 analytically  !
 ! A33   A(15,14,19)           120.1591         calculate D2E/DX2 analytically  !
 ! A34   A(14,15,16)           119.366          calculate D2E/DX2 analytically  !
 ! A35   A(14,15,20)           120.2915         calculate D2E/DX2 analytically  !
 ! A36   A(16,15,20)           120.3422         calculate D2E/DX2 analytically  !
 ! A37   A(15,16,17)           120.3333         calculate D2E/DX2 analytically  !
 ! A38   A(15,16,21)           120.1393         calculate D2E/DX2 analytically  !
 ! A39   A(17,16,21)           119.5271         calculate D2E/DX2 analytically  !
 ! A40   A(12,17,16)           120.9347         calculate D2E/DX2 analytically  !
 ! A41   A(12,17,22)           120.3074         calculate D2E/DX2 analytically  !
 ! A42   A(16,17,22)           118.755          calculate D2E/DX2 analytically  !
 ! A43   A(4,23,24)            108.4976         calculate D2E/DX2 analytically  !
 ! A44   A(4,23,25)            112.8065         calculate D2E/DX2 analytically  !
 ! A45   A(4,23,26)            109.7592         calculate D2E/DX2 analytically  !
 ! A46   A(24,23,25)           107.9149         calculate D2E/DX2 analytically  !
 ! A47   A(24,23,26)           108.1619         calculate D2E/DX2 analytically  !
 ! A48   A(25,23,26)           109.5741         calculate D2E/DX2 analytically  !
 ! A49   A(2,28,29)            121.9636         calculate D2E/DX2 analytically  !
 ! A50   A(2,28,30)            118.922          calculate D2E/DX2 analytically  !
 ! A51   A(29,28,30)           119.0953         calculate D2E/DX2 analytically  !
 ! D1    D(4,1,2,3)              6.2799         calculate D2E/DX2 analytically  !
 ! D2    D(4,1,2,28)          -176.3206         calculate D2E/DX2 analytically  !
 ! D3    D(27,1,2,3)          -160.2588         calculate D2E/DX2 analytically  !
 ! D4    D(27,1,2,28)           17.1407         calculate D2E/DX2 analytically  !
 ! D5    D(2,1,4,9)            -60.1936         calculate D2E/DX2 analytically  !
 ! D6    D(2,1,4,12)          -170.5779         calculate D2E/DX2 analytically  !
 ! D7    D(2,1,4,23)            48.0356         calculate D2E/DX2 analytically  !
 ! D8    D(27,1,4,9)           106.2302         calculate D2E/DX2 analytically  !
 ! D9    D(27,1,4,12)           -4.1541         calculate D2E/DX2 analytically  !
 ! D10   D(27,1,4,23)         -145.5406         calculate D2E/DX2 analytically  !
 ! D11   D(1,2,28,29)            5.936          calculate D2E/DX2 analytically  !
 ! D12   D(1,2,28,30)         -175.6638         calculate D2E/DX2 analytically  !
 ! D13   D(3,2,28,29)         -176.4816         calculate D2E/DX2 analytically  !
 ! D14   D(3,2,28,30)            1.9187         calculate D2E/DX2 analytically  !
 ! D15   D(1,4,9,5)            179.0793         calculate D2E/DX2 analytically  !
 ! D16   D(1,4,9,10)            55.0125         calculate D2E/DX2 analytically  !
 ! D17   D(1,4,9,11)           -55.1376         calculate D2E/DX2 analytically  !
 ! D18   D(12,4,9,5)           -61.0893         calculate D2E/DX2 analytically  !
 ! D19   D(12,4,9,10)          174.8439         calculate D2E/DX2 analytically  !
 ! D20   D(12,4,9,11)           64.6938         calculate D2E/DX2 analytically  !
 ! D21   D(23,4,9,5)            56.8006         calculate D2E/DX2 analytically  !
 ! D22   D(23,4,9,10)          -67.2662         calculate D2E/DX2 analytically  !
 ! D23   D(23,4,9,11)         -177.4163         calculate D2E/DX2 analytically  !
 ! D24   D(1,4,12,13)           46.7739         calculate D2E/DX2 analytically  !
 ! D25   D(1,4,12,17)         -134.0769         calculate D2E/DX2 analytically  !
 ! D26   D(9,4,12,13)          -65.6003         calculate D2E/DX2 analytically  !
 ! D27   D(9,4,12,17)          113.5489         calculate D2E/DX2 analytically  !
 ! D28   D(23,4,12,13)        -170.6044         calculate D2E/DX2 analytically  !
 ! D29   D(23,4,12,17)           8.5448         calculate D2E/DX2 analytically  !
 ! D30   D(1,4,23,24)           72.1825         calculate D2E/DX2 analytically  !
 ! D31   D(1,4,23,25)         -168.3093         calculate D2E/DX2 analytically  !
 ! D32   D(1,4,23,26)          -45.8143         calculate D2E/DX2 analytically  !
 ! D33   D(9,4,23,24)         -175.9873         calculate D2E/DX2 analytically  !
 ! D34   D(9,4,23,25)          -56.4792         calculate D2E/DX2 analytically  !
 ! D35   D(9,4,23,26)           66.0159         calculate D2E/DX2 analytically  !
 ! D36   D(12,4,23,24)         -69.1132         calculate D2E/DX2 analytically  !
 ! D37   D(12,4,23,25)          50.395          calculate D2E/DX2 analytically  !
 ! D38   D(12,4,23,26)         172.89           calculate D2E/DX2 analytically  !
 ! D39   D(6,5,9,4)            172.4936         calculate D2E/DX2 analytically  !
 ! D40   D(6,5,9,10)           -70.895          calculate D2E/DX2 analytically  !
 ! D41   D(6,5,9,11)            50.945          calculate D2E/DX2 analytically  !
 ! D42   D(7,5,9,4)            -67.208          calculate D2E/DX2 analytically  !
 ! D43   D(7,5,9,10)            49.4034         calculate D2E/DX2 analytically  !
 ! D44   D(7,5,9,11)           171.2433         calculate D2E/DX2 analytically  !
 ! D45   D(8,5,9,4)             52.0405         calculate D2E/DX2 analytically  !
 ! D46   D(8,5,9,10)           168.6518         calculate D2E/DX2 analytically  !
 ! D47   D(8,5,9,11)           -69.5082         calculate D2E/DX2 analytically  !
 ! D48   D(4,12,13,14)         179.4833         calculate D2E/DX2 analytically  !
 ! D49   D(4,12,13,18)          -0.4716         calculate D2E/DX2 analytically  !
 ! D50   D(17,12,13,14)          0.3016         calculate D2E/DX2 analytically  !
 ! D51   D(17,12,13,18)       -179.6533         calculate D2E/DX2 analytically  !
 ! D52   D(4,12,17,16)        -179.9138         calculate D2E/DX2 analytically  !
 ! D53   D(4,12,17,22)           0.7091         calculate D2E/DX2 analytically  !
 ! D54   D(13,12,17,16)         -0.7489         calculate D2E/DX2 analytically  !
 ! D55   D(13,12,17,22)        179.874          calculate D2E/DX2 analytically  !
 ! D56   D(12,13,14,15)          0.1984         calculate D2E/DX2 analytically  !
 ! D57   D(12,13,14,19)       -179.7041         calculate D2E/DX2 analytically  !
 ! D58   D(18,13,14,15)       -179.8464         calculate D2E/DX2 analytically  !
 ! D59   D(18,13,14,19)          0.251          calculate D2E/DX2 analytically  !
 ! D60   D(13,14,15,16)         -0.2588         calculate D2E/DX2 analytically  !
 ! D61   D(13,14,15,20)        179.929          calculate D2E/DX2 analytically  !
 ! D62   D(19,14,15,16)        179.6433         calculate D2E/DX2 analytically  !
 ! D63   D(19,14,15,20)         -0.1689         calculate D2E/DX2 analytically  !
 ! D64   D(14,15,16,17)         -0.1851         calculate D2E/DX2 analytically  !
 ! D65   D(14,15,16,21)        179.9987         calculate D2E/DX2 analytically  !
 ! D66   D(20,15,16,17)        179.627          calculate D2E/DX2 analytically  !
 ! D67   D(20,15,16,21)         -0.1892         calculate D2E/DX2 analytically  !
 ! D68   D(15,16,17,12)          0.7016         calculate D2E/DX2 analytically  !
 ! D69   D(15,16,17,22)       -179.9118         calculate D2E/DX2 analytically  !
 ! D70   D(21,16,17,12)       -179.4811         calculate D2E/DX2 analytically  !
 ! D71   D(21,16,17,22)         -0.0944         calculate D2E/DX2 analytically  !
 --------------------------------------------------------------------------------
 Trust Radius=1.00D-02 FncErr=1.00D-07 GrdErr=1.00D-06 EigMax=2.50D+02 EigMin=1.00D-04
 Number of steps in this run=     70 maximum allowed number of steps=    180.
 Search for a saddle point of order  1.
 GradGradGradGradGradGradGradGradGradGradGradGradGradGradGradGradGradGrad

                          Input orientation:                          
 ---------------------------------------------------------------------
 Center     Atomic      Atomic             Coordinates (Angstroms)
 Number     Number       Type             X           Y           Z
 ---------------------------------------------------------------------
      1          6           0       -1.330540   -0.920100    0.154850
      2          6           0       -2.739240   -0.736500    0.079420
      3          8           0       -3.320200    0.375620    0.111710
      4          6           0       -0.433270    0.152490    0.407250
      5          6           0        0.018840    2.612550   -1.109380
      6          1           0       -0.177130    3.109600   -2.060310
      7          1           0       -0.286010    3.272130   -0.300540
      8          1           0        1.087190    2.414560   -1.023830
      9          7           0       -0.709560    1.350590   -1.009020
     10          1           0       -1.715890    1.471500   -0.896500
     11          1           0       -0.559470    0.766630   -1.822560
     12          6           0        1.024710   -0.185660    0.232190
     13          6           0        1.448900   -0.879350   -0.902510
     14          6           0        2.783630   -1.193170   -1.092940
     15          6           0        3.728990   -0.822060   -0.146000
     16          6           0        3.323450   -0.132100    0.984470
     17          6           0        1.984800    0.189020    1.167590
     18          1           0        0.724400   -1.178740   -1.650210
     19          1           0        3.087230   -1.727790   -1.984160
     20          1           0        4.773340   -1.067190   -0.291810
     21          1           0        4.050010    0.163380    1.730860
     22          1           0        1.696760    0.729290    2.058550
     23          6           0       -0.742860    1.092790    1.555290
     24          1           0       -0.559160    0.566290    2.493160
     25          1           0       -0.122240    1.988810    1.546660
     26          1           0       -1.791090    1.375870    1.525630
     27          1           0       -0.927150   -1.857610   -0.202500
     28          7           0       -3.506940   -1.859540   -0.092100
     29          1           0       -3.111440   -2.780300   -0.074970
     30          1           0       -4.496780   -1.756240   -0.214730
 ---------------------------------------------------------------------
                    Distance matrix (angstroms):
                    1          2          3          4          5
     1  C    0.000000
     2  C    1.422615   0.000000
     3  O    2.374763   1.255137   0.000000
     4  C    1.421003   2.493045   2.910583   0.000000
     5  C    3.987320   4.498487   4.200489   2.925144   0.000000
     6  H    4.740862   5.092675   4.698000   3.859917   1.090748
     7  H    4.344331   4.715063   4.214977   3.202313   1.087291
     8  H    4.284234   5.078179   4.987165   3.078433   1.089904
     9  N    2.626070   3.108094   3.003672   1.875527   1.460542
    10  H    2.640754   2.622009   2.188893   2.254920   2.087247
    11  H    2.711044   3.260111   3.393511   2.316279   2.061671
    12  C    2.468316   3.807110   4.382670   1.506883   3.262141
    13  C    2.974047   4.304081   5.034670   2.514504   3.779052
    14  C    4.307893   5.664368   6.416309   3.796026   4.704024
    15  C    5.069415   6.472722   7.154854   4.310480   5.146830
    16  C    4.792581   6.159596   6.719939   3.811446   4.778887
    17  C    3.639680   4.935307   5.412276   2.535057   3.863041
    18  H    2.747347   3.896665   4.677519   2.710261   3.894123
    19  H    4.974376   6.260094   7.062023   4.652764   5.386911
    20  H    6.121968   7.529012   8.231034   5.393060   6.067469
    21  H    5.710346   7.044924   7.548953   4.674597   5.505972
    22  H    3.938160   5.073814   5.393066   2.756178   4.049428
    23  C    2.521572   3.083833   3.039891   1.515918   3.160747
    24  H    2.876122   3.503734   3.651164   2.130281   4.183247
    25  H    3.443673   4.053245   3.858550   2.183361   2.731941
    26  H    2.713415   2.729948   2.310378   2.142687   3.427609
    27  H    1.081364   2.149427   3.288272   2.157826   4.658289
    28  N    2.383327   1.371131   2.252188   3.707433   5.784944
    29  H    2.585491   2.083144   3.168322   4.000798   6.320719
    30  H    3.295572   2.053129   2.456772   4.532353   6.346460
                    6          7          8          9         10
     6  H    0.000000
     7  H    1.770610   0.000000
     8  H    1.776479   1.773204   0.000000
     9  N    2.117264   2.091328   2.088196   0.000000
    10  H    2.530930   2.375288   2.960208   1.019794   0.000000
    11  H    2.385837   2.944292   2.462749   1.012612   1.640651
    12  C    4.190312   3.736054   2.888362   2.628376   3.395734
    13  C    4.460515   4.539501   3.315931   3.105306   3.942389
    14  C    5.311848   5.476266   3.987280   4.322052   5.233043
    15  C    5.863472   5.736419   4.269122   5.016566   5.955702
    16  C    5.659803   5.125255   3.939493   4.736828   5.612890
    17  C    4.860357   4.100921   3.249777   3.653280   4.427226
    18  H    4.401227   4.759494   3.665484   2.977394   3.680607
    19  H    5.836282   6.261990   4.699091   4.984269   5.872684
    20  H    6.714188   6.665343   5.123098   6.035084   6.994334
    21  H    6.397022   5.708939   4.629733   5.618711   6.469915
    22  H    5.112959   3.995337   3.565498   3.947958   4.574864
    23  C    4.178533   2.898679   3.427538   2.577451   2.664861
    24  H    5.229576   3.898838   4.300673   3.592076   3.694215
    25  H    3.777488   2.255189   2.872526   2.698846   2.962492
    26  H    4.297633   3.032485   3.982853   2.755866   2.425183
    27  H    5.356040   5.170581   4.794120   3.315172   3.490948
    28  N    6.297129   6.062332   6.343665   4.355572   3.866620
    29  H    6.873330   6.683251   6.746510   4.868853   4.549755
    30  H    6.763279   6.559150   7.016476   4.962492   4.314680
                   11         12         13         14         15
    11  H    0.000000
    12  C    2.763780   0.000000
    13  C    2.754867   1.395954   0.000000
    14  C    3.943283   2.421744   1.384287   0.000000
    15  C    4.870901   2.803777   2.402998   1.388569   0.000000
    16  C    4.874854   2.419297   2.762791   2.394349   1.385088
    17  C    3.968367   1.391809   2.390380   2.767413   2.406242
    18  H    2.337197   2.149378   1.083324   2.133351   3.378969
    19  H    4.421161   3.397699   2.138678   1.082712   2.147332
    20  H    5.843368   3.886373   3.385283   2.148634   1.082597
    21  H    5.851326   3.394154   3.845477   3.379022   2.144003
    22  H    4.489430   2.150436   3.378910   3.848250   3.375898
    23  C    3.398512   2.551339   3.838480   4.967380   5.153492
    24  H    4.320367   2.861129   4.201518   5.208652   5.223113
    25  H    3.610615   2.787767   4.085738   5.053372   5.059453
    26  H    3.619176   3.469884   4.634589   5.863867   6.172238
    27  H    3.105868   2.606555   2.663197   3.873532   4.770241
    28  N    4.310318   4.841786   5.116433   6.404452   7.310127
    29  H    4.706095   4.892263   5.009504   6.189273   7.115563
    30  H    4.944937   5.757891   6.049222   7.354772   8.278932
                   16         17         18         19         20
    16  C    0.000000
    17  C    1.388753   0.000000
    18  H    3.846044   3.376296   0.000000
    19  H    3.378578   3.850070   2.448662   0.000000
    20  H    2.146035   3.388786   4.272190   2.478590   0.000000
    21  H    1.082726   2.140800   4.928753   4.278416   2.475622
    22  H    2.131141   1.081050   4.282635   4.930938   4.268123
    23  C    4.284982   2.899524   4.193797   5.928994   6.205301
    24  H    4.223571   2.893303   4.675486   6.213321   6.233769
    25  H    4.084984   2.796883   4.579318   6.048182   6.056881
    26  H    5.359603   3.974186   4.789539   6.763826   7.236254
    27  H    4.738553   3.813829   2.298771   4.393906   5.755721
    28  N    7.127221   5.995217   4.560201   6.861511   8.320501
    29  H    7.038692   6.027643   4.445227   6.570867   8.071649
    30  H    8.076627   6.906933   5.445625   7.787740   9.296013
                   21         22         23         24         25
    21  H    0.000000
    22  H    2.442421   0.000000
    23  C    4.885308   2.517369   0.000000
    24  H    4.689124   2.303178   1.091122   0.000000
    25  H    4.557828   2.270943   1.089998   1.763611   0.000000
    26  H    5.969146   3.587083   1.086186   1.763288   1.777976
    27  H    5.709151   4.323113   3.439280   3.643802   4.301440
    28  N    8.032614   6.197244   4.366954   4.610599   5.380662
    29  H    7.950638   6.323600   4.823769   4.930425   5.857424
    30  H    8.973176   7.050220   5.034070   5.313348   6.022001
                   26         27         28         29         30
    26  H    0.000000
    27  H    3.766725   0.000000
    28  N    4.003632   2.582152   0.000000
    29  H    4.645320   2.374604   1.002254   0.000000
    30  H    4.489958   3.571090   1.002742   1.728409   0.000000
 Stoichiometry    C11H16N2O
 Framework group  C1[X(C11H16N2O)]
 Deg. of freedom    84
 Full point group                 C1      NOp   1
 Largest Abelian subgroup         C1      NOp   1
 Largest concise Abelian subgroup C1      NOp   1
                         Standard orientation:                         
 ---------------------------------------------------------------------
 Center     Atomic      Atomic             Coordinates (Angstroms)
 Number     Number       Type             X           Y           Z
 ---------------------------------------------------------------------
      1          6           0       -1.330539   -0.920099    0.154850
      2          6           0       -2.739239   -0.736499    0.079420
      3          8           0       -3.320199    0.375621    0.111710
      4          6           0       -0.433269    0.152490    0.407250
      5          6           0        0.018841    2.612550   -1.109380
      6          1           0       -0.177129    3.109600   -2.060310
      7          1           0       -0.286009    3.272130   -0.300540
      8          1           0        1.087191    2.414560   -1.023830
      9          7           0       -0.709559    1.350590   -1.009020
     10          1           0       -1.715889    1.471501   -0.896500
     11          1           0       -0.559469    0.766630   -1.822560
     12          6           0        1.024711   -0.185660    0.232190
     13          6           0        1.448901   -0.879350   -0.902510
     14          6           0        2.783631   -1.193170   -1.092940
     15          6           0        3.728991   -0.822060   -0.146000
     16          6           0        3.323451   -0.132100    0.984470
     17          6           0        1.984801    0.189020    1.167590
     18          1           0        0.724401   -1.178740   -1.650210
     19          1           0        3.087230   -1.727790   -1.984160
     20          1           0        4.773341   -1.067190   -0.291810
     21          1           0        4.050011    0.163380    1.730860
     22          1           0        1.696761    0.729290    2.058550
     23          6           0       -0.742859    1.092790    1.555290
     24          1           0       -0.559159    0.566290    2.493160
     25          1           0       -0.122239    1.988810    1.546660
     26          1           0       -1.791089    1.375871    1.525630
     27          1           0       -0.927150   -1.857609   -0.202500
     28          7           0       -3.506940   -1.859539   -0.092100
     29          1           0       -3.111440   -2.780299   -0.074970
     30          1           0       -4.496780   -1.756239   -0.214730
 ---------------------------------------------------------------------
 Rotational constants (GHZ):           1.1776139           0.4234907           0.3812456
 Standard basis: def2TZVP (5D, 7F)
 There are   600 symmetry adapted cartesian basis functions of A   symmetry.
 There are   530 symmetry adapted basis functions of A   symmetry.
   530 basis functions,   842 primitive gaussians,   600 cartesian basis functions
    52 alpha electrons       52 beta electrons
       nuclear repulsion energy       900.8380602009 Hartrees.
 NAtoms=   30 NActive=   30 NUniq=   30 SFac= 1.00D+00 NAtFMM=   60 NAOKFM=F Big=F
 Integral buffers will be    131072 words long.
 Raffenetti 2 integral format.
 Two-electron integral symmetry is turned on.
 Nuclear repulsion after empirical dispersion term =      900.8151805225 Hartrees.
 Force inversion solution in PCM.
 ------------------------------------------------------------------------------
 Polarizable Continuum Model (PCM)
 =================================
 Model                : PCM.
 Atomic radii         : UFF (Universal Force Field).
 Polarization charges : Total charges.
 Charge compensation  : None.
 Solution method      : Matrix inversion.
 Cavity type          : Scaled VdW (van der Waals Surface) (Alpha=1.100).
 Cavity algorithm     : GePol (No added spheres)
                        Default sphere list used, NSphG=   30.
                        Lebedev-Laikov grids with approx.  5.0 points / Ang**2.
                        Smoothing algorithm: York/Karplus (Gamma=1.0000).
                        Polarization charges: spherical gaussians, with
                                              point-specific exponents (IZeta= 3).
                        Self-potential: point-specific (ISelfS= 7).
                        Self-field    : sphere-specific E.n sum rule (ISelfD= 2).
 1st derivatives      : Analytical E(r).r(x)/FMM algorithm (CHGder, D1EAlg=3).
                        Cavity 1st derivative terms included.
 2nd derivatives      : Analytical E(r).r(xy)/FMM algorithm (CHGder, D2EAlg=3).
                        Cavity 2nd derivative terms included.
 Solvent              : Water, Eps=  78.355300 Eps(inf)=   1.777849
 ------------------------------------------------------------------------------
 One-electron integrals computed using PRISM.
   1 Symmetry operations used in ECPInt.
 ECPInt:  NShTT=   23871 NPrTT=   71232 LenC2=   22363 LenP2D=   50175.
 LDataN:  DoStor=T MaxTD1= 6 Len=  172
 NBasis=   530 RedAO= T EigKep=  7.30D-06  NBF=   530
 NBsUse=   530 1.00D-06 EigRej= -1.00D+00 NBFU=   530
 ExpMin= 9.52D-02 ExpMax= 2.70D+04 ExpMxC= 9.22D+02 IAcc=3 IRadAn=         5 AccDes= 0.00D+00
 Harris functional with IExCor= 4639 and IRadAn=       5 diagonalized for initial guess.
 HarFok:  IExCor= 4639 AccDes= 0.00D+00 IRadAn=         5 IDoV= 1 UseB2=F ITyADJ=14
 ICtDFT=  3500011 ScaDFX=  1.000000  1.000000  1.000000  1.000000
 FoFCou: FMM=F IPFlag=           0 FMFlag=      100000 FMFlg1=           0
         NFxFlg=           0 DoJE=T BraDBF=F KetDBF=T FulRan=T
         wScrn=  0.000000 ICntrl=       500 IOpCl=  0 I1Cent=   200000004 NGrid=           0
         NMat0=    1 NMatS0=      1 NMatT0=    0 NMatD0=    1 NMtDS0=    0 NMtDT0=    0
 Petite list used in FoFCou.
 Requested convergence on RMS density matrix=1.00D-08 within 128 cycles.
 Requested convergence on MAX density matrix=1.00D-06.
 Requested convergence on             energy=1.00D-06.
 No special actions if energy rises.
 Inv3:  Mode=1 IEnd=    12991683.
 Iteration    1 A*A^-1 deviation from unit magnitude is 4.66D-15 for   2053.
 Iteration    1 A*A^-1 deviation from orthogonality  is 2.58D-15 for   2076   1985.
 Iteration    1 A^-1*A deviation from unit magnitude is 4.66D-15 for   2053.
 Iteration    1 A^-1*A deviation from orthogonality  is 1.99D-15 for   1212    993.
 Error on total polarization charges =  0.01493
 SCF Done:  E(RwB97XD) =  -613.543955327     A.U. after   15 cycles
            NFock= 15  Conv=0.34D-08     -V/T= 2.0049
 DoSCS=F DFT=T ScalE2(SS,OS)=  1.000000  1.000000
 Range of M.O.s used for correlation:     1   530
 NBasis=   530 NAE=    52 NBE=    52 NFC=     0 NFV=     0
 NROrb=    530 NOA=    52 NOB=    52 NVA=   478 NVB=   478

 **** Warning!!: The largest alpha MO coefficient is  0.62757085D+02

   1 Symmetry operations used in ECPInt.
 ECPInt:  NShTT=   23871 NPrTT=   71232 LenC2=   22363 LenP2D=   50175.
 LDataN:  DoStor=T MaxTD1= 7 Len=  274
 Symmetrizing basis deriv contribution to polar:
 IMax=3 JMax=2 DiffMx= 0.00D+00
 G2DrvN: will do    31 centers at a time, making    1 passes.
 Calling FoFCou, ICntrl=  3107 FMM=F I1Cent=   0 AccDes= 0.00D+00.
 NEqPCM:  Using equilibrium solvation (IEInf=0, Eps=  78.3553, EpsInf=   1.7778)
 G2PCM: DoFxE=T DoFxN=T DoGrad=T DoDP/DQ/DG/TGxP=FFFF NFrqRd=   0 IEInf=0 SqF1=F DoCFld=F IF1Alg=4.
 End of G2Drv F.D. properties file   721 does not exist.
 End of G2Drv F.D. properties file   722 does not exist.
 End of G2Drv F.D. properties file   788 does not exist.
          IDoAtm=111111111111111111111111111111
 NEqPCM:  Using equilibrium solvation (IEInf=0, Eps=  78.3553, EpsInf=   1.7778)
          Differentiating once with respect to nuclear coordinates.
 CalDSu exits because no D1Ps are significant.
          There are    93 degrees of freedom in the 1st order CPHF.  IDoFFX=6 NUNeed=     0.
     87 vectors produced by pass  0 Test12= 2.67D-14 1.08D-09 XBig12= 1.29D-01 1.25D-01.
 AX will form    87 AO Fock derivatives at one time.
     87 vectors produced by pass  1 Test12= 2.67D-14 1.08D-09 XBig12= 2.11D-02 3.38D-02.
     87 vectors produced by pass  2 Test12= 2.67D-14 1.08D-09 XBig12= 6.13D-04 3.37D-03.
     87 vectors produced by pass  3 Test12= 2.67D-14 1.08D-09 XBig12= 7.30D-06 2.99D-04.
     87 vectors produced by pass  4 Test12= 2.67D-14 1.08D-09 XBig12= 6.83D-08 2.92D-05.
     87 vectors produced by pass  5 Test12= 2.67D-14 1.08D-09 XBig12= 5.30D-10 2.18D-06.
     87 vectors produced by pass  6 Test12= 2.67D-14 1.08D-09 XBig12= 3.22D-12 1.58D-07.
     35 vectors produced by pass  7 Test12= 2.67D-14 1.08D-09 XBig12= 2.02D-14 1.85D-08.
      9 vectors produced by pass  8 Test12= 2.67D-14 1.08D-09 XBig12= 1.13D-15 3.06D-09.
      9 vectors produced by pass  9 Test12= 2.67D-14 1.08D-09 XBig12= 2.00D-15 6.11D-09.
      7 vectors produced by pass 10 Test12= 2.67D-14 1.08D-09 XBig12= 1.12D-15 3.71D-09.
      7 vectors produced by pass 11 Test12= 2.67D-14 1.08D-09 XBig12= 1.45D-15 3.74D-09.
      7 vectors produced by pass 12 Test12= 2.67D-14 1.08D-09 XBig12= 2.18D-15 4.88D-09.
      6 vectors produced by pass 13 Test12= 2.67D-14 1.08D-09 XBig12= 1.10D-15 3.43D-09.
      6 vectors produced by pass 14 Test12= 2.67D-14 1.08D-09 XBig12= 1.73D-15 3.92D-09.
      6 vectors produced by pass 15 Test12= 2.67D-14 1.08D-09 XBig12= 2.34D-15 5.20D-09.
      3 vectors produced by pass 16 Test12= 2.67D-14 1.08D-09 XBig12= 7.04D-16 2.24D-09.
      1 vectors produced by pass 17 Test12= 2.67D-14 1.08D-09 XBig12= 2.03D-16 1.73D-09.
 InvSVY:  IOpt=1 It=  1 EMax= 3.89D-16
 Solved reduced A of dimension   705 with    93 vectors.
 End of Minotr F.D. properties file   721 does not exist.
 End of Minotr F.D. properties file   722 does not exist.
 End of Minotr F.D. properties file   788 does not exist.

 **********************************************************************

            Population analysis using the SCF density.

 **********************************************************************

 Orbital symmetries:
       Occupied  (A) (A) (A) (A) (A) (A) (A) (A) (A) (A) (A) (A)
                 (A) (A) (A) (A) (A) (A) (A) (A) (A) (A) (A) (A)
                 (A) (A) (A) (A) (A) (A) (A) (A) (A) (A) (A) (A)
                 (A) (A) (A) (A) (A) (A) (A) (A) (A) (A) (A) (A)
                 (A) (A) (A) (A)
       Virtual   (A) (A) (A) (A) (A) (A) (A) (A) (A) (A) (A) (A)
                 (A) (A) (A) (A) (A) (A) (A) (A) (A) (A) (A) (A)
                 (A) (A) (A) (A) (A) (A) (A) (A) (A) (A) (A) (A)
                 (A) (A) (A) (A) (A) (A) (A) (A) (A) (A) (A) (A)
                 (A) (A) (A) (A) (A) (A) (A) (A) (A) (A) (A) (A)
                 (A) (A) (A) (A) (A) (A) (A) (A) (A) (A) (A) (A)
                 (A) (A) (A) (A) (A) (A) (A) (A) (A) (A) (A) (A)
                 (A) (A) (A) (A) (A) (A) (A) (A) (A) (A) (A) (A)
                 (A) (A) (A) (A) (A) (A) (A) (A) (A) (A) (A) (A)
                 (A) (A) (A) (A) (A) (A) (A) (A) (A) (A) (A) (A)
                 (A) (A) (A) (A) (A) (A) (A) (A) (A) (A) (A) (A)
                 (A) (A) (A) (A) (A) (A) (A) (A) (A) (A) (A) (A)
                 (A) (A) (A) (A) (A) (A) (A) (A) (A) (A) (A) (A)
                 (A) (A) (A) (A) (A) (A) (A) (A) (A) (A) (A) (A)
                 (A) (A) (A) (A) (A) (A) (A) (A) (A) (A) (A) (A)
                 (A) (A) (A) (A) (A) (A) (A) (A) (A) (A) (A) (A)
                 (A) (A) (A) (A) (A) (A) (A) (A) (A) (A) (A) (A)
                 (A) (A) (A) (A) (A) (A) (A) (A) (A) (A) (A) (A)
                 (A) (A) (A) (A) (A) (A) (A) (A) (A) (A) (A) (A)
                 (A) (A) (A) (A) (A) (A) (A) (A) (A) (A) (A) (A)
                 (A) (A) (A) (A) (A) (A) (A) (A) (A) (A) (A) (A)
                 (A) (A) (A) (A) (A) (A) (A) (A) (A) (A) (A) (A)
                 (A) (A) (A) (A) (A) (A) (A) (A) (A) (A) (A) (A)
                 (A) (A) (A) (A) (A) (A) (A) (A) (A) (A) (A) (A)
                 (A) (A) (A) (A) (A) (A) (A) (A) (A) (A) (A) (A)
                 (A) (A) (A) (A) (A) (A) (A) (A) (A) (A) (A) (A)
                 (A) (A) (A) (A) (A) (A) (A) (A) (A) (A) (A) (A)
                 (A) (A) (A) (A) (A) (A) (A) (A) (A) (A) (A) (A)
                 (A) (A) (A) (A) (A) (A) (A) (A) (A) (A) (A) (A)
                 (A) (A) (A) (A) (A) (A) (A) (A) (A) (A) (A) (A)
                 (A) (A) (A) (A) (A) (A) (A) (A) (A) (A) (A) (A)
                 (A) (A) (A) (A) (A) (A) (A) (A) (A) (A) (A) (A)
                 (A) (A) (A) (A) (A) (A) (A) (A) (A) (A) (A) (A)
                 (A) (A) (A) (A) (A) (A) (A) (A) (A) (A) (A) (A)
                 (A) (A) (A) (A) (A) (A) (A) (A) (A) (A) (A) (A)
                 (A) (A) (A) (A) (A) (A) (A) (A) (A) (A) (A) (A)
                 (A) (A) (A) (A) (A) (A) (A) (A) (A) (A) (A) (A)
                 (A) (A) (A) (A) (A) (A) (A) (A) (A) (A) (A) (A)
                 (A) (A) (A) (A) (A) (A) (A) (A) (A) (A) (A) (A)
                 (A) (A) (A) (A) (A) (A) (A) (A) (A) (A)
 The electronic state is 1-A.
 Alpha  occ. eigenvalues --  -19.18628 -14.47834 -14.42453 -10.36176 -10.34805
 Alpha  occ. eigenvalues --  -10.31575 -10.30302 -10.29244 -10.29225 -10.29189
 Alpha  occ. eigenvalues --  -10.29161 -10.29110 -10.27004 -10.23192  -1.10593
 Alpha  occ. eigenvalues --   -1.03587  -0.97663  -0.97167  -0.90752  -0.85455
 Alpha  occ. eigenvalues --   -0.83875  -0.79898  -0.78320  -0.72997  -0.70424
 Alpha  occ. eigenvalues --   -0.67475  -0.64173  -0.62383  -0.61025  -0.59359
 Alpha  occ. eigenvalues --   -0.56520  -0.56187  -0.55559  -0.54056  -0.53591
 Alpha  occ. eigenvalues --   -0.51823  -0.50853  -0.49219  -0.48386  -0.47716
 Alpha  occ. eigenvalues --   -0.47085  -0.46504  -0.46307  -0.44783  -0.42881
 Alpha  occ. eigenvalues --   -0.42131  -0.41244  -0.34029  -0.33746  -0.33643
 Alpha  occ. eigenvalues --   -0.32505  -0.25751
 Alpha virt. eigenvalues --    0.03095   0.05032   0.09904   0.10609   0.13005
 Alpha virt. eigenvalues --    0.13462   0.13598   0.15435   0.15978   0.16665
 Alpha virt. eigenvalues --    0.17032   0.17809   0.18263   0.18918   0.19468
 Alpha virt. eigenvalues --    0.20284   0.20630   0.20732   0.21049   0.22490
 Alpha virt. eigenvalues --    0.23480   0.24058   0.25185   0.25420   0.26864
 Alpha virt. eigenvalues --    0.27571   0.28664   0.29085   0.29992   0.30726
 Alpha virt. eigenvalues --    0.31438   0.31773   0.32060   0.32235   0.33442
 Alpha virt. eigenvalues --    0.33856   0.34606   0.34898   0.35326   0.36763
 Alpha virt. eigenvalues --    0.37669   0.38385   0.38974   0.40488   0.41013
 Alpha virt. eigenvalues --    0.42018   0.42422   0.43691   0.44367   0.44509
 Alpha virt. eigenvalues --    0.44687   0.45950   0.46726   0.47006   0.47464
 Alpha virt. eigenvalues --    0.48756   0.48943   0.49360   0.49711   0.49774
 Alpha virt. eigenvalues --    0.50328   0.50986   0.51070   0.51908   0.52409
 Alpha virt. eigenvalues --    0.53247   0.53497   0.53806   0.55214   0.55376
 Alpha virt. eigenvalues --    0.55701   0.56249   0.56364   0.57488   0.58341
 Alpha virt. eigenvalues --    0.58881   0.59223   0.59940   0.60416   0.61209
 Alpha virt. eigenvalues --    0.61395   0.63541   0.63981   0.64784   0.66143
 Alpha virt. eigenvalues --    0.67863   0.69098   0.70246   0.71142   0.72327
 Alpha virt. eigenvalues --    0.72538   0.74048   0.74771   0.75650   0.76550
 Alpha virt. eigenvalues --    0.77543   0.78473   0.79013   0.79824   0.81489
 Alpha virt. eigenvalues --    0.81991   0.82911   0.83688   0.84211   0.86367
 Alpha virt. eigenvalues --    0.87807   0.88952   0.90124   0.90708   0.91399
 Alpha virt. eigenvalues --    0.92718   0.93836   0.94275   0.95783   0.96879
 Alpha virt. eigenvalues --    0.98013   0.98438   1.00838   1.01549   1.02486
 Alpha virt. eigenvalues --    1.03426   1.05308   1.06002   1.06525   1.07687
 Alpha virt. eigenvalues --    1.09808   1.10595   1.11218   1.12994   1.14899
 Alpha virt. eigenvalues --    1.15954   1.17204   1.18557   1.19900   1.21505
 Alpha virt. eigenvalues --    1.22182   1.22775   1.23451   1.26136   1.27075
 Alpha virt. eigenvalues --    1.28949   1.30414   1.31037   1.31246   1.32978
 Alpha virt. eigenvalues --    1.33844   1.34341   1.35000   1.37556   1.38421
 Alpha virt. eigenvalues --    1.39465   1.40253   1.42733   1.43386   1.43828
 Alpha virt. eigenvalues --    1.45989   1.48516   1.48775   1.49500   1.50351
 Alpha virt. eigenvalues --    1.52137   1.54165   1.54858   1.55394   1.55931
 Alpha virt. eigenvalues --    1.57065   1.57402   1.58702   1.59430   1.60622
 Alpha virt. eigenvalues --    1.61183   1.61824   1.63438   1.64119   1.65096
 Alpha virt. eigenvalues --    1.65352   1.66470   1.67382   1.68539   1.71060
 Alpha virt. eigenvalues --    1.71401   1.72587   1.72811   1.73972   1.75609
 Alpha virt. eigenvalues --    1.75912   1.76537   1.78247   1.78640   1.79761
 Alpha virt. eigenvalues --    1.80083   1.80580   1.81646   1.83781   1.83894
 Alpha virt. eigenvalues --    1.86585   1.87658   1.89847   1.90280   1.91095
 Alpha virt. eigenvalues --    1.93117   1.94559   1.95645   1.97960   1.98227
 Alpha virt. eigenvalues --    1.99110   2.00354   2.00920   2.02502   2.03536
 Alpha virt. eigenvalues --    2.06261   2.06639   2.08498   2.09750   2.10492
 Alpha virt. eigenvalues --    2.11139   2.13509   2.14172   2.15882   2.16115
 Alpha virt. eigenvalues --    2.17583   2.19498   2.20241   2.21369   2.24149
 Alpha virt. eigenvalues --    2.26368   2.27109   2.28594   2.29640   2.31150
 Alpha virt. eigenvalues --    2.31667   2.33368   2.33667   2.34900   2.35376
 Alpha virt. eigenvalues --    2.38661   2.39435   2.41711   2.42842   2.43714
 Alpha virt. eigenvalues --    2.44345   2.45579   2.46496   2.47712   2.49536
 Alpha virt. eigenvalues --    2.51879   2.54244   2.55123   2.56423   2.57789
 Alpha virt. eigenvalues --    2.58736   2.60598   2.62565   2.63938   2.64067
 Alpha virt. eigenvalues --    2.64546   2.65559   2.67041   2.68100   2.69149
 Alpha virt. eigenvalues --    2.70367   2.71521   2.72077   2.72450   2.73436
 Alpha virt. eigenvalues --    2.74538   2.75043   2.75366   2.76779   2.78124
 Alpha virt. eigenvalues --    2.78744   2.80444   2.81263   2.82116   2.82561
 Alpha virt. eigenvalues --    2.83679   2.84497   2.85382   2.86563   2.86993
 Alpha virt. eigenvalues --    2.87771   2.88657   2.89838   2.90602   2.91992
 Alpha virt. eigenvalues --    2.92435   2.94046   2.94883   2.95714   2.96632
 Alpha virt. eigenvalues --    2.97408   2.98319   2.99028   3.02143   3.03234
 Alpha virt. eigenvalues --    3.04923   3.06918   3.07044   3.08517   3.10542
 Alpha virt. eigenvalues --    3.11692   3.12699   3.12921   3.14123   3.14382
 Alpha virt. eigenvalues --    3.17509   3.18660   3.20120   3.20978   3.21985
 Alpha virt. eigenvalues --    3.22683   3.23620   3.25119   3.26175   3.26796
 Alpha virt. eigenvalues --    3.27204   3.28938   3.29383   3.29648   3.30419
 Alpha virt. eigenvalues --    3.30753   3.31984   3.34083   3.34665   3.35826
 Alpha virt. eigenvalues --    3.37269   3.38039   3.38864   3.39550   3.40170
 Alpha virt. eigenvalues --    3.41134   3.42489   3.43005   3.44235   3.45076
 Alpha virt. eigenvalues --    3.45893   3.46544   3.48567   3.48701   3.50699
 Alpha virt. eigenvalues --    3.51253   3.51626   3.52622   3.53947   3.55225
 Alpha virt. eigenvalues --    3.56537   3.56899   3.57960   3.59393   3.60401
 Alpha virt. eigenvalues --    3.61524   3.63076   3.64289   3.66100   3.66731
 Alpha virt. eigenvalues --    3.68086   3.69896   3.71294   3.73553   3.75515
 Alpha virt. eigenvalues --    3.77430   3.77997   3.79725   3.81449   3.81932
 Alpha virt. eigenvalues --    3.84202   3.85991   3.87967   3.88390   3.91217
 Alpha virt. eigenvalues --    3.92042   3.95738   3.96663   3.98151   3.99058
 Alpha virt. eigenvalues --    4.05439   4.05681   4.06602   4.08597   4.11362
 Alpha virt. eigenvalues --    4.13075   4.14350   4.15584   4.18453   4.20698
 Alpha virt. eigenvalues --    4.22387   4.23593   4.27022   4.27339   4.28627
 Alpha virt. eigenvalues --    4.30431   4.31462   4.32397   4.34115   4.35314
 Alpha virt. eigenvalues --    4.37249   4.38026   4.39992   4.40159   4.43694
 Alpha virt. eigenvalues --    4.44662   4.47253   4.48523   4.49704   4.51417
 Alpha virt. eigenvalues --    4.54319   4.56366   4.59897   4.64898   4.65798
 Alpha virt. eigenvalues --    4.69304   4.70497   4.74060   4.75919   4.76969
 Alpha virt. eigenvalues --    4.77953   4.81168   4.83445   4.86044   4.86410
 Alpha virt. eigenvalues --    4.92199   4.95791   4.97840   4.99643   5.00355
 Alpha virt. eigenvalues --    5.01481   5.03606   5.08972   5.12829   5.13901
 Alpha virt. eigenvalues --    5.15421   5.20426   5.21559   5.22656   5.23649
 Alpha virt. eigenvalues --    5.26124   5.27009   5.28777   5.32605   5.36228
 Alpha virt. eigenvalues --    5.37595   5.38286   5.41489   5.41946   5.44876
 Alpha virt. eigenvalues --    5.49774   5.51376   5.59521   5.60570   5.62245
 Alpha virt. eigenvalues --    5.65822   5.72422   5.80957   5.86901   5.93077
 Alpha virt. eigenvalues --    6.11282   6.18711   6.39046   6.56959   6.71092
 Alpha virt. eigenvalues --    6.79687   6.95429   7.17924   7.23647  22.25732
 Alpha virt. eigenvalues --   22.49775  22.60119  22.69912  22.74817  22.77857
 Alpha virt. eigenvalues --   22.93870  22.97913  23.00352  23.38685  23.42701
 Alpha virt. eigenvalues --   32.15624  32.28857  44.10805
          Condensed to atoms (all electrons):
               1          2          3          4          5          6
     1  C    6.573112   0.002675  -0.276815   0.167302   0.010721  -0.001249
     2  C    0.002675   4.562139   0.656989   0.024345   0.000372   0.000044
     3  O   -0.276815   0.656989   8.235130   0.081084  -0.000530   0.000098
     4  C    0.167302   0.024345   0.081084   5.443160  -0.000249   0.002578
     5  C    0.010721   0.000372  -0.000530  -0.000249   4.871936   0.403941
     6  H   -0.001249   0.000044   0.000098   0.002578   0.403941   0.510240
     7  H   -0.000753   0.000334   0.000274  -0.003445   0.420977  -0.018621
     8  H    0.002556  -0.000263  -0.000086  -0.008513   0.420153  -0.022075
     9  N   -0.082054  -0.006420  -0.023974  -0.004235   0.221520  -0.020407
    10  H   -0.025588   0.003421   0.039820  -0.018351  -0.023039  -0.002100
    11  H    0.007811   0.000974  -0.000715  -0.009488  -0.018226  -0.007295
    12  C   -0.025494  -0.021878  -0.001730   0.079745  -0.000477  -0.000437
    13  C   -0.028441   0.009486   0.001201  -0.059615  -0.004499   0.000296
    14  C    0.002023   0.000198   0.000011  -0.003945  -0.000008  -0.000023
    15  C    0.000029   0.000031   0.000001  -0.001888  -0.000112   0.000002
    16  C   -0.000609  -0.000087  -0.000007   0.005352   0.000061   0.000006
    17  C    0.005228  -0.003637  -0.000411  -0.052566   0.001707  -0.000057
    18  H    0.004101  -0.000203  -0.000046   0.012296   0.000683  -0.000057
    19  H   -0.000027  -0.000006  -0.000000  -0.000180   0.000002  -0.000000
    20  H   -0.000001   0.000000  -0.000000   0.000055  -0.000001  -0.000000
    21  H    0.000011  -0.000001  -0.000000  -0.000188   0.000001   0.000000
    22  H    0.000000  -0.000088  -0.000007  -0.010880   0.000118  -0.000017
    23  C   -0.011071  -0.001637  -0.046743   0.197934  -0.000551   0.000544
    24  H   -0.006455   0.000332   0.000744  -0.055194  -0.000552   0.000029
    25  H    0.012244   0.000774   0.000862  -0.050679  -0.002533   0.000567
    26  H   -0.029477  -0.001684   0.031593  -0.023739  -0.000560  -0.000136
    27  H    0.407625  -0.010177   0.003630  -0.038058  -0.000177   0.000009
    28  N   -0.196652   0.463042  -0.101364   0.018916  -0.000016   0.000002
    29  H   -0.002090  -0.021928   0.004260   0.000253  -0.000000   0.000000
    30  H    0.024791  -0.023781   0.008070  -0.002114  -0.000003   0.000000
               7          8          9         10         11         12
     1  C   -0.000753   0.002556  -0.082054  -0.025588   0.007811  -0.025494
     2  C    0.000334  -0.000263  -0.006420   0.003421   0.000974  -0.021878
     3  O    0.000274  -0.000086  -0.023974   0.039820  -0.000715  -0.001730
     4  C   -0.003445  -0.008513  -0.004235  -0.018351  -0.009488   0.079745
     5  C    0.420977   0.420153   0.221520  -0.023039  -0.018226  -0.000477
     6  H   -0.018621  -0.022075  -0.020407  -0.002100  -0.007295  -0.000437
     7  H    0.507076  -0.025346  -0.033342  -0.006540   0.005507  -0.005248
     8  H   -0.025346   0.514666  -0.045572   0.005554  -0.003128   0.013178
     9  N   -0.033342  -0.045572   6.582056   0.352269   0.352631   0.009901
    10  H   -0.006540   0.005554   0.352269   0.418192  -0.021600   0.012025
    11  H    0.005507  -0.003128   0.352631  -0.021600   0.428725  -0.012316
    12  C   -0.005248   0.013178   0.009901   0.012025  -0.012316   5.530849
    13  C    0.000738  -0.002181   0.003935   0.000785   0.002482   0.307112
    14  C   -0.000035   0.000110   0.001884   0.000089  -0.000522   0.011929
    15  C    0.000033  -0.000239   0.000101  -0.000030   0.000194  -0.091838
    16  C   -0.000146   0.000539   0.000865   0.000042  -0.000316   0.010475
    17  C    0.000603   0.000066  -0.007329  -0.001595   0.002778   0.294032
    18  H   -0.000016   0.000337  -0.005203  -0.000122   0.002097  -0.081522
    19  H   -0.000000  -0.000002   0.000007  -0.000000  -0.000024   0.014005
    20  H    0.000000  -0.000003  -0.000000  -0.000000   0.000001  -0.004052
    21  H   -0.000002   0.000005   0.000010   0.000000  -0.000001   0.014152
    22  H    0.000127   0.000127  -0.000497  -0.000066   0.000055  -0.058748
    23  C    0.003465  -0.004729  -0.000534  -0.008956   0.003306  -0.090343
    24  H    0.000079  -0.000154   0.007569   0.000116  -0.000230   0.010603
    25  H   -0.003149  -0.000162  -0.003968   0.000761  -0.000097  -0.011465
    26  H   -0.000449   0.000229  -0.008183   0.001677   0.000174   0.016176
    27  H    0.000002  -0.000032   0.002278  -0.000477   0.000415  -0.011416
    28  N    0.000003  -0.000002  -0.000235   0.001020   0.000077  -0.000483
    29  H   -0.000000   0.000000   0.000064  -0.000096  -0.000003  -0.000246
    30  H   -0.000000   0.000000   0.000080  -0.000110  -0.000004   0.000113
              13         14         15         16         17         18
     1  C   -0.028441   0.002023   0.000029  -0.000609   0.005228   0.004101
     2  C    0.009486   0.000198   0.000031  -0.000087  -0.003637  -0.000203
     3  O    0.001201   0.000011   0.000001  -0.000007  -0.000411  -0.000046
     4  C   -0.059615  -0.003945  -0.001888   0.005352  -0.052566   0.012296
     5  C   -0.004499  -0.000008  -0.000112   0.000061   0.001707   0.000683
     6  H    0.000296  -0.000023   0.000002   0.000006  -0.000057  -0.000057
     7  H    0.000738  -0.000035   0.000033  -0.000146   0.000603  -0.000016
     8  H   -0.002181   0.000110  -0.000239   0.000539   0.000066   0.000337
     9  N    0.003935   0.001884   0.000101   0.000865  -0.007329  -0.005203
    10  H    0.000785   0.000089  -0.000030   0.000042  -0.001595  -0.000122
    11  H    0.002482  -0.000522   0.000194  -0.000316   0.002778   0.002097
    12  C    0.307112   0.011929  -0.091838   0.010475   0.294032  -0.081522
    13  C    5.212461   0.449043   0.020028  -0.072653   0.023679   0.435104
    14  C    0.449043   4.951222   0.419213   0.013298  -0.072928  -0.019438
    15  C    0.020028   0.419213   4.986571   0.423367   0.027392   0.007939
    16  C   -0.072653   0.013298   0.423367   4.970105   0.423406  -0.002775
    17  C    0.023679  -0.072928   0.027392   0.423406   5.179882   0.009303
    18  H    0.435104  -0.019438   0.007939  -0.002775   0.009303   0.479431
    19  H   -0.057555   0.454614  -0.056534   0.011102  -0.004134  -0.006185
    20  H    0.012883  -0.058547   0.454662  -0.058294   0.012116  -0.000073
    21  H   -0.004221   0.011319  -0.056690   0.455666  -0.059585   0.000017
    22  H    0.008630  -0.002663   0.008219  -0.031399   0.444518   0.000007
    23  C    0.011232  -0.000327   0.000427  -0.001928   0.003359   0.000070
    24  H    0.000598   0.000061  -0.000059   0.000604  -0.005483  -0.000025
    25  H   -0.000708  -0.000132   0.000032  -0.000392  -0.001225  -0.000042
    26  H   -0.000406  -0.000025   0.000014  -0.000138  -0.000028   0.000041
    27  H    0.001302   0.000701  -0.000010  -0.000121   0.001186  -0.000393
    28  N   -0.000250  -0.000016   0.000001  -0.000002  -0.000006   0.000061
    29  H   -0.000044   0.000001  -0.000000   0.000001   0.000014  -0.000005
    30  H   -0.000013  -0.000000  -0.000000   0.000000   0.000001  -0.000009
              19         20         21         22         23         24
     1  C   -0.000027  -0.000001   0.000011   0.000000  -0.011071  -0.006455
     2  C   -0.000006   0.000000  -0.000001  -0.000088  -0.001637   0.000332
     3  O   -0.000000  -0.000000  -0.000000  -0.000007  -0.046743   0.000744
     4  C   -0.000180   0.000055  -0.000188  -0.010880   0.197934  -0.055194
     5  C    0.000002  -0.000001   0.000001   0.000118  -0.000551  -0.000552
     6  H   -0.000000  -0.000000   0.000000  -0.000017   0.000544   0.000029
     7  H   -0.000000   0.000000  -0.000002   0.000127   0.003465   0.000079
     8  H   -0.000002  -0.000003   0.000005   0.000127  -0.004729  -0.000154
     9  N    0.000007  -0.000000   0.000010  -0.000497  -0.000534   0.007569
    10  H   -0.000000  -0.000000   0.000000  -0.000066  -0.008956   0.000116
    11  H   -0.000024   0.000001  -0.000001   0.000055   0.003306  -0.000230
    12  C    0.014005  -0.004052   0.014152  -0.058748  -0.090343   0.010603
    13  C   -0.057555   0.012883  -0.004221   0.008630   0.011232   0.000598
    14  C    0.454614  -0.058547   0.011319  -0.002663  -0.000327   0.000061
    15  C   -0.056534   0.454662  -0.056690   0.008219   0.000427  -0.000059
    16  C    0.011102  -0.058294   0.455666  -0.031399  -0.001928   0.000604
    17  C   -0.004134   0.012116  -0.059585   0.444518   0.003359  -0.005483
    18  H   -0.006185  -0.000073   0.000017   0.000007   0.000070  -0.000025
    19  H    0.508437  -0.006649  -0.000058   0.000023   0.000003   0.000000
    20  H   -0.006649   0.509722  -0.006726  -0.000070  -0.000003   0.000000
    21  H   -0.000058  -0.006726   0.509142  -0.006026  -0.000008   0.000013
    22  H    0.000023  -0.000070  -0.006026   0.491345   0.004335  -0.001913
    23  C    0.000003  -0.000003  -0.000008   0.004335   5.146452   0.421093
    24  H    0.000000   0.000000   0.000013  -0.001913   0.421093   0.521612
    25  H   -0.000000   0.000000  -0.000006  -0.004147   0.430885  -0.025619
    26  H   -0.000000   0.000000  -0.000001   0.000678   0.401510  -0.010818
    27  H    0.000036  -0.000001   0.000002   0.000040   0.002758  -0.000013
    28  N   -0.000000   0.000000   0.000000   0.000000  -0.000870  -0.000052
    29  H    0.000000  -0.000000  -0.000000   0.000000   0.000202  -0.000013
    30  H    0.000000   0.000000  -0.000000  -0.000000   0.000092  -0.000001
              25         26         27         28         29         30
     1  C    0.012244  -0.029477   0.407625  -0.196652  -0.002090   0.024791
     2  C    0.000774  -0.001684  -0.010177   0.463042  -0.021928  -0.023781
     3  O    0.000862   0.031593   0.003630  -0.101364   0.004260   0.008070
     4  C   -0.050679  -0.023739  -0.038058   0.018916   0.000253  -0.002114
     5  C   -0.002533  -0.000560  -0.000177  -0.000016  -0.000000  -0.000003
     6  H    0.000567  -0.000136   0.000009   0.000002   0.000000   0.000000
     7  H   -0.003149  -0.000449   0.000002   0.000003  -0.000000  -0.000000
     8  H   -0.000162   0.000229  -0.000032  -0.000002   0.000000   0.000000
     9  N   -0.003968  -0.008183   0.002278  -0.000235   0.000064   0.000080
    10  H    0.000761   0.001677  -0.000477   0.001020  -0.000096  -0.000110
    11  H   -0.000097   0.000174   0.000415   0.000077  -0.000003  -0.000004
    12  C   -0.011465   0.016176  -0.011416  -0.000483  -0.000246   0.000113
    13  C   -0.000708  -0.000406   0.001302  -0.000250  -0.000044  -0.000013
    14  C   -0.000132  -0.000025   0.000701  -0.000016   0.000001  -0.000000
    15  C    0.000032   0.000014  -0.000010   0.000001  -0.000000  -0.000000
    16  C   -0.000392  -0.000138  -0.000121  -0.000002   0.000001   0.000000
    17  C   -0.001225  -0.000028   0.001186  -0.000006   0.000014   0.000001
    18  H   -0.000042   0.000041  -0.000393   0.000061  -0.000005  -0.000009
    19  H   -0.000000  -0.000000   0.000036  -0.000000   0.000000   0.000000
    20  H    0.000000   0.000000  -0.000001   0.000000  -0.000000   0.000000
    21  H   -0.000006  -0.000001   0.000002   0.000000  -0.000000  -0.000000
    22  H   -0.004147   0.000678   0.000040   0.000000   0.000000  -0.000000
    23  C    0.430885   0.401510   0.002758  -0.000870   0.000202   0.000092
    24  H   -0.025619  -0.010818  -0.000013  -0.000052  -0.000013  -0.000001
    25  H    0.539341  -0.020628  -0.000001  -0.000000  -0.000001  -0.000002
    26  H   -0.020628   0.484137  -0.000148   0.000706  -0.000129  -0.000092
    27  H   -0.000001  -0.000148   0.503446  -0.000757   0.001887  -0.000139
    28  N   -0.000000   0.000706  -0.000757   6.591845   0.373066   0.351493
    29  H   -0.000001  -0.000129   0.001887   0.373066   0.400883  -0.023645
    30  H   -0.000002  -0.000092  -0.000139   0.351493  -0.023645   0.410066
 Mulliken charges:
               1
     1  C   -0.533452
     2  C    0.366632
     3  O   -0.611337
     4  C    0.310306
     5  C   -0.300660
     6  H    0.154119
     7  H    0.157872
     8  H    0.154970
     9  N   -0.293219
    10  H    0.272903
    11  H    0.266737
    12  C    0.093397
    13  C   -0.270407
    14  C   -0.157106
    15  C   -0.140856
    16  C   -0.146021
    17  C   -0.220288
    18  H    0.164625
    19  H    0.143126
    20  H    0.144981
    21  H    0.143174
    22  H    0.158298
    23  C   -0.459967
    24  H    0.143126
    25  H    0.139490
    26  H    0.159703
    27  H    0.136601
    28  N   -0.499527
    29  H    0.267571
    30  H    0.255208
 Sum of Mulliken charges =  -0.00000
 Mulliken charges with hydrogens summed into heavy atoms:
               1
     1  C   -0.396851
     2  C    0.366632
     3  O   -0.611337
     4  C    0.310306
     5  C    0.166302
     9  N    0.246421
    12  C    0.093397
    13  C   -0.105782
    14  C   -0.013980
    15  C    0.004125
    16  C   -0.002847
    17  C   -0.061989
    23  C   -0.017648
    28  N    0.023253
 APT charges:
               1
     1  C   -0.641736
     2  C   -0.270951
     3  O   -0.241471
     4  C    0.257015
     5  C   -1.203442
     6  H    0.639859
     7  H    0.428081
     8  H    0.227256
     9  N   -0.559123
    10  H    0.549123
    11  H    0.421164
    12  C   -0.303029
    13  C   -0.576865
    14  C   -0.566921
    15  C   -0.623727
    16  C   -0.641164
    17  C   -0.537746
    18  H    0.292798
    19  H    0.689035
    20  H    0.946578
    21  H    0.789427
    22  H    0.403384
    23  C   -1.315084
    24  H    0.388117
    25  H    0.360970
    26  H    0.426738
    27  H    0.297100
    28  N   -1.226437
    29  H    0.526372
    30  H    1.064677
 Sum of APT charges =  -0.00000
 APT charges with hydrogens summed into heavy atoms:
               1
     1  C   -0.344636
     2  C   -0.270951
     3  O   -0.241471
     4  C    0.257015
     5  C    0.091754
     9  N    0.411165
    12  C   -0.303029
    13  C   -0.284068
    14  C    0.122114
    15  C    0.322851
    16  C    0.148264
    17  C   -0.134362
    23  C   -0.139259
    28  N    0.364612
 Electronic spatial extent (au):  <R**2>=           3135.3353
 Charge=             -0.0000 electrons
 Dipole moment (field-independent basis, Debye):
    X=              4.9048    Y=              1.2162    Z=             -3.2104  Tot=              5.9869
 Quadrupole moment (field-independent basis, Debye-Ang):
   XX=            -92.5030   YY=            -74.0932   ZZ=            -78.8358
   XY=              7.0208   XZ=              4.3108   YZ=              1.1380
 Traceless Quadrupole moment (field-independent basis, Debye-Ang):
   XX=            -10.6923   YY=              7.7175   ZZ=              2.9749
   XY=              7.0208   XZ=              4.3108   YZ=              1.1380
 Octapole moment (field-independent basis, Debye-Ang**2):
  XXX=             50.0473  YYY=              9.3014  ZZZ=            -13.3242  XYY=            -29.7151
  XXY=            -45.1147  XXZ=             -9.5396  XZZ=              3.6879  YZZ=             11.2024
  YYZ=            -16.4342  XYZ=              8.1576
 Hexadecapole moment (field-independent basis, Debye-Ang**3):
 XXXX=          -2651.4256 YYYY=           -768.4513 ZZZZ=           -490.1408 XXXY=            145.0766
 XXXZ=             57.8859 YYYX=             71.1454 YYYZ=            -12.1458 ZZZX=             12.7708
 ZZZY=             -1.8257 XXYY=           -551.1001 XXZZ=           -548.8943 YYZZ=           -221.5380
 XXYZ=             31.8216 YYXZ=             -0.4834 ZZXY=            -12.3097
 N-N= 9.008151805225D+02 E-N=-3.230467072753D+03  KE= 6.105405729254D+02
  Exact polarizability:   0.000   0.000   0.000   0.000   0.000   0.000
 Approx polarizability: 193.431   1.833 159.368   2.428  11.519 157.087
   1 Symmetry operations used in ECPInt.
 ECPInt:  NShTT=   23871 NPrTT=   71232 LenC2=   22363 LenP2D=   50175.
 LDataN:  DoStor=T MaxTD1= 8 Len=  415
 D2PCM: PCM CHGder 2nd derivatives, FixD1E=F FixD2E=F DoIter=F DoCFld=F I1PDM=0
 Calling FoFJK, ICntrl=    100147 FMM=F ISym2X=0 I1Cent= 0 IOpClX= 0 NMat=1 NMatS=1 NMatT=0.
 ***** Axes restored to original set *****
 -------------------------------------------------------------------
 Center     Atomic                   Forces (Hartrees/Bohr)
 Number     Number              X              Y              Z
 -------------------------------------------------------------------
      1        6          -0.000017173   -0.000004523   -0.000002702
      2        6           0.000023144    0.000020200    0.000003781
      3        8           0.000012241   -0.000005256    0.000005711
      4        6          -0.000011009    0.000019985   -0.000021482
      5        6           0.000001715   -0.000004361    0.000000001
      6        1          -0.000000689   -0.000003148   -0.000001966
      7        1           0.000000709    0.000001612   -0.000003944
      8        1          -0.000003056   -0.000001253   -0.000004441
      9        7           0.000002951   -0.000016249    0.000022214
     10        1           0.000002079   -0.000000334   -0.000003890
     11        1          -0.000003427   -0.000004415   -0.000001718
     12        6           0.000003134   -0.000005466   -0.000007446
     13        6           0.000004519    0.000003737    0.000005228
     14        6          -0.000009074   -0.000000781    0.000002396
     15        6           0.000009785   -0.000001599    0.000000327
     16        6          -0.000004602    0.000002178   -0.000000789
     17        6           0.000001780    0.000000988    0.000004197
     18        1          -0.000004376   -0.000004002   -0.000000740
     19        1          -0.000000358   -0.000003803   -0.000001285
     20        1          -0.000005186   -0.000000157   -0.000000121
     21        1           0.000002110    0.000001022   -0.000000518
     22        1           0.000001039    0.000002623   -0.000001410
     23        6           0.000005229    0.000001998   -0.000002930
     24        1          -0.000000526    0.000004884   -0.000000586
     25        1           0.000001065    0.000000237   -0.000001046
     26        1          -0.000003333    0.000004077    0.000000973
     27        1           0.000000638    0.000004134    0.000003064
     28        7          -0.000005529   -0.000017314    0.000005259
     29        1          -0.000001107    0.000003226    0.000003462
     30        1          -0.000002693    0.000001761    0.000000403
 -------------------------------------------------------------------
 Cartesian Forces:  Max     0.000023144 RMS     0.000006976
 FormGI is forming the generalized inverse of G from B-inverse, IUseBI=4.

 GradGradGradGradGradGradGradGradGradGradGradGradGradGradGradGradGradGrad
 Berny optimization.
 Internal  Forces:  Max     0.000028307 RMS     0.000004485
 Search for a saddle point.
 Step number   1 out of a maximum of   70
 All quantities printed in internal units (Hartrees-Bohrs-Radians)
 Swapping is turned off.
 Second derivative matrix not updated -- analytic derivatives used.
 ITU=  0
     Eigenvalues ---   -0.03601  -0.00397   0.00112   0.00312   0.00352
     Eigenvalues ---    0.00728   0.00826   0.00969   0.01559   0.01611
     Eigenvalues ---    0.01794   0.01837   0.02033   0.02152   0.02320
     Eigenvalues ---    0.02480   0.02544   0.02710   0.02897   0.02978
     Eigenvalues ---    0.03224   0.04551   0.04681   0.04708   0.04782
     Eigenvalues ---    0.05541   0.06036   0.06224   0.06789   0.08547
     Eigenvalues ---    0.09459   0.10307   0.10960   0.11082   0.11273
     Eigenvalues ---    0.11708   0.11980   0.12162   0.12299   0.12368
     Eigenvalues ---    0.12924   0.13158   0.13672   0.14604   0.16117
     Eigenvalues ---    0.17114   0.17622   0.17865   0.19317   0.19463
     Eigenvalues ---    0.19685   0.21715   0.25042   0.25410   0.27448
     Eigenvalues ---    0.29350   0.30964   0.32788   0.33922   0.34161
     Eigenvalues ---    0.34223   0.34693   0.35051   0.35544   0.36123
     Eigenvalues ---    0.36262   0.36285   0.36427   0.36464   0.36605
     Eigenvalues ---    0.37687   0.39361   0.42308   0.42755   0.43324
     Eigenvalues ---    0.43833   0.45529   0.48021   0.48193   0.48293
     Eigenvalues ---    0.48778   0.49582   0.51932   0.68363
 Eigenvectors required to have negative eigenvalues:
                          R6        D7        D10       R2        D28
   1                   -0.83495   0.21701   0.18973   0.16309  -0.12834
                          D29       A11       D5        D37       D38
   1                   -0.12693   0.12072   0.10978   0.10285   0.10141
 RFO step:  Lambda0=1.888223912D-08 Lambda=-3.97176245D-03.
 Linear search not attempted -- option 19 set.
 Iteration  1 RMS(Cart)=  0.00158179 RMS(Int)=  0.00001811
 Iteration  2 RMS(Cart)=  0.00001349 RMS(Int)=  0.00001234
 Iteration  3 RMS(Cart)=  0.00000000 RMS(Int)=  0.00001234
 Variable       Old X    -DE/DX   Delta X   Delta X   Delta X     New X
                                 (Linear)    (Quad)   (Total)
    R1        2.68835  -0.00003   0.00000   0.00001   0.00001   2.68836
    R2        2.68531  -0.00001   0.00000  -0.00013  -0.00013   2.68517
    R3        2.04348  -0.00000   0.00000  -0.00001  -0.00001   2.04347
    R4        2.37186  -0.00001   0.00000  -0.00004  -0.00004   2.37183
    R5        2.59106   0.00002   0.00000  -0.00005  -0.00005   2.59101
    R6        3.54423  -0.00003   0.00000   0.00050   0.00050   3.54473
    R7        2.84760   0.00000   0.00000  -0.00002  -0.00002   2.84757
    R8        2.86467   0.00000   0.00000  -0.00002  -0.00002   2.86465
    R9        2.06121  -0.00000   0.00000   0.00000   0.00000   2.06122
   R10        2.05468   0.00000   0.00000   0.00001   0.00001   2.05469
   R11        2.05962  -0.00000   0.00000  -0.00001  -0.00001   2.05961
   R12        2.76002  -0.00000   0.00000  -0.00003  -0.00003   2.76000
   R13        1.92713  -0.00000   0.00000  -0.00003  -0.00003   1.92710
   R14        1.91356   0.00000   0.00000   0.00000   0.00000   1.91356
   R15        2.63797  -0.00001   0.00000  -0.00001  -0.00001   2.63796
   R16        2.63014   0.00000   0.00000   0.00001   0.00001   2.63015
   R17        2.61592  -0.00000   0.00000  -0.00001  -0.00001   2.61591
   R18        2.04718   0.00000   0.00000   0.00001   0.00001   2.04720
   R19        2.62401   0.00000   0.00000   0.00001   0.00001   2.62402
   R20        2.04603   0.00000   0.00000   0.00001   0.00001   2.04604
   R21        2.61744   0.00000   0.00000   0.00001   0.00001   2.61744
   R22        2.04581  -0.00000   0.00000  -0.00001  -0.00001   2.04580
   R23        2.62436  -0.00000   0.00000  -0.00001  -0.00001   2.62436
   R24        2.04606   0.00000   0.00000   0.00000   0.00000   2.04606
   R25        2.04289   0.00000   0.00000  -0.00000  -0.00000   2.04289
   R26        2.06192  -0.00000   0.00000   0.00000   0.00000   2.06192
   R27        2.05980  -0.00000   0.00000  -0.00000  -0.00000   2.05979
   R28        2.05259   0.00000   0.00000   0.00001   0.00001   2.05260
   R29        1.89399  -0.00000   0.00000  -0.00001  -0.00001   1.89397
   R30        1.89491   0.00000   0.00000   0.00000   0.00000   1.89491
    A1        2.13798  -0.00002   0.00000   0.00002   0.00002   2.13800
    A2        2.05303   0.00001   0.00000   0.00006   0.00006   2.05309
    A3        2.06866   0.00000   0.00000  -0.00004  -0.00004   2.06862
    A4        2.17892  -0.00001   0.00000  -0.00002  -0.00002   2.17889
    A5        2.04356   0.00000   0.00000   0.00005   0.00005   2.04361
    A6        2.05985   0.00001   0.00000   0.00002   0.00002   2.05987
    A7        1.82868  -0.00000   0.00000  -0.00003  -0.00003   1.82865
    A8        2.00526  -0.00000   0.00000   0.00001   0.00001   2.00527
    A9        2.06435   0.00000   0.00000   0.00011   0.00011   2.06446
   A10        1.77027   0.00000   0.00000  -0.00007  -0.00007   1.77020
   A11        1.71687  -0.00000   0.00000  -0.00011  -0.00011   1.71676
   A12        2.00951  -0.00000   0.00000   0.00002   0.00002   2.00953
   A13        1.89836  -0.00000   0.00000  -0.00002  -0.00002   1.89833
   A14        1.90427   0.00000   0.00000  -0.00002  -0.00002   1.90425
   A15        1.94340  -0.00000   0.00000   0.00004   0.00004   1.94344
   A16        1.90354  -0.00000   0.00000  -0.00001  -0.00001   1.90353
   A17        1.91049   0.00000   0.00000   0.00001   0.00001   1.91051
   A18        1.90340  -0.00000   0.00000  -0.00001  -0.00001   1.90339
   A19        2.12984  -0.00000   0.00000   0.00006   0.00006   2.12989
   A20        1.70903   0.00000   0.00000  -0.00000  -0.00000   1.70902
   A21        1.78898  -0.00000   0.00000  -0.00005  -0.00005   1.78892
   A22        1.97934  -0.00000   0.00000  -0.00001  -0.00001   1.97933
   A23        1.94889   0.00000   0.00000   0.00002   0.00002   1.94891
   A24        1.87893  -0.00000   0.00000  -0.00002  -0.00002   1.87891
   A25        2.09434  -0.00000   0.00000   0.00001   0.00001   2.09436
   A26        2.12815  -0.00000   0.00000  -0.00002  -0.00002   2.12813
   A27        2.06060   0.00000   0.00000   0.00001   0.00001   2.06061
   A28        2.11468  -0.00000   0.00000   0.00000   0.00000   2.11469
   A29        2.08878  -0.00000   0.00000  -0.00000  -0.00000   2.08878
   A30        2.07972   0.00000   0.00000   0.00000   0.00000   2.07972
   A31        2.09675   0.00000   0.00000   0.00000   0.00000   2.09676
   A32        2.08926  -0.00000   0.00000  -0.00000  -0.00000   2.08926
   A33        2.09717  -0.00000   0.00000  -0.00000  -0.00000   2.09717
   A34        2.08333  -0.00000   0.00000  -0.00001  -0.00001   2.08332
   A35        2.09948   0.00000   0.00000  -0.00000  -0.00000   2.09948
   A36        2.10037   0.00000   0.00000   0.00001   0.00001   2.10038
   A37        2.10021  -0.00000   0.00000   0.00001   0.00001   2.10022
   A38        2.09683  -0.00000   0.00000  -0.00001  -0.00001   2.09682
   A39        2.08614   0.00000   0.00000   0.00000   0.00000   2.08615
   A40        2.11071  -0.00000   0.00000  -0.00001  -0.00001   2.11070
   A41        2.09976   0.00000   0.00000   0.00000   0.00000   2.09976
   A42        2.07267   0.00000   0.00000   0.00001   0.00001   2.07267
   A43        1.89364   0.00000   0.00000   0.00002   0.00002   1.89366
   A44        1.96884  -0.00000   0.00000  -0.00003  -0.00003   1.96882
   A45        1.91566   0.00000   0.00000   0.00003   0.00003   1.91569
   A46        1.88347  -0.00000   0.00000  -0.00001  -0.00001   1.88346
   A47        1.88778  -0.00000   0.00000  -0.00002  -0.00002   1.88776
   A48        1.91243  -0.00000   0.00000   0.00001   0.00001   1.91244
   A49        2.12867  -0.00000   0.00000   0.00020   0.00011   2.12878
   A50        2.07558  -0.00000   0.00000   0.00026   0.00017   2.07575
   A51        2.07861   0.00000   0.00000   0.00013   0.00004   2.07865
    D1        0.10960  -0.00000   0.00000   0.00022   0.00022   0.10982
    D2       -3.07738  -0.00000   0.00000   0.00148   0.00148  -3.07590
    D3       -2.79704  -0.00000   0.00000   0.00002   0.00002  -2.79703
    D4        0.29916  -0.00000   0.00000   0.00128   0.00128   0.30044
    D5       -1.05058  -0.00000   0.00000  -0.00029  -0.00029  -1.05087
    D6       -2.97715  -0.00000   0.00000  -0.00019  -0.00019  -2.97734
    D7        0.83838  -0.00000   0.00000  -0.00039  -0.00039   0.83799
    D8        1.85407  -0.00000   0.00000  -0.00007  -0.00007   1.85399
    D9       -0.07250  -0.00000   0.00000   0.00002   0.00002  -0.07248
   D10       -2.54016  -0.00000   0.00000  -0.00018  -0.00018  -2.54034
   D11        0.10360  -0.00000   0.00000  -0.01316  -0.01316   0.09044
   D12       -3.06591   0.00000   0.00000   0.01174   0.01174  -3.05417
   D13       -3.08018  -0.00000   0.00000  -0.01198  -0.01198  -3.09217
   D14        0.03349   0.00000   0.00000   0.01291   0.01291   0.04640
   D15        3.12552   0.00000   0.00000   0.00014   0.00014   3.12567
   D16        0.96015   0.00000   0.00000   0.00013   0.00013   0.96028
   D17       -0.96233   0.00000   0.00000   0.00016   0.00016  -0.96217
   D18       -1.06621   0.00000   0.00000   0.00011   0.00011  -1.06610
   D19        3.05160  -0.00000   0.00000   0.00010   0.00010   3.05170
   D20        1.12912   0.00000   0.00000   0.00013   0.00013   1.12925
   D21        0.99136  -0.00000   0.00000   0.00008   0.00008   0.99144
   D22       -1.17402  -0.00000   0.00000   0.00006   0.00006  -1.17395
   D23       -3.09650   0.00000   0.00000   0.00010   0.00010  -3.09640
   D24        0.81636  -0.00000   0.00000  -0.00001  -0.00001   0.81635
   D25       -2.34008  -0.00000   0.00000   0.00005   0.00005  -2.34004
   D26       -1.14494   0.00000   0.00000   0.00006   0.00006  -1.14488
   D27        1.98180   0.00000   0.00000   0.00012   0.00012   1.98192
   D28       -2.97761   0.00000   0.00000   0.00023   0.00023  -2.97738
   D29        0.14913   0.00000   0.00000   0.00028   0.00028   0.14941
   D30        1.25982   0.00000   0.00000   0.00006   0.00006   1.25988
   D31       -2.93755   0.00000   0.00000   0.00004   0.00004  -2.93751
   D32       -0.79961   0.00000   0.00000   0.00006   0.00006  -0.79955
   D33       -3.07156  -0.00000   0.00000   0.00000   0.00000  -3.07156
[...]
 00001333,0.00005857,0.00000867,-0.00005449,-0.00029559,0.00066669,0.00
 029676,0.00031405,-0.00000604,0.00001923,0.00003850,-0.00001899,0.0000
 1488,-0.00000798,0.00000779,-0.00003468,-0.00000528,0.00000259,0.00001
 710,-0.00000204,0.00018338,-0.00017773,-0.00026010,0.02266356,-0.10746
 527,0.11183068,-0.02554205,0.11508133,0.00133674,0.00019349,0.00156326
 ,-0.00068377,0.00079201,-0.00022227,-0.00011879,-0.00058359,-0.0001103
 1,-0.00521928,0.01197031,-0.02085257,-0.00046572,-0.00085887,0.0001448
 0,0.00007866,0.00026405,0.00005294,0.00003329,0.00006150,0.00012545,0.
 00009841,0.00005676,0.00001149,0.00092630,-0.00239389,-0.00436123,0.00
 047859,-0.00015704,0.00029692,-0.00039419,0.00110893,-0.00080124,-0.00
 042511,0.00009902,0.00036617,0.00009652,-0.00028955,-0.00001617,-0.000
 10281,0.00008418,0.00001335,-0.00004205,0.00009334,0.00008687,0.000156
 23,0.00005398,0.00025778,-0.00035238,-0.00027191,-0.00004631,0.0000130
 8,0.00006178,0.00007075,0.00000680,0.00002141,-0.00001148,-0.00001291,
 0.00002336,0.00003045,-0.00000321,-0.00001509,-0.00000679,0.00058436,0
 .00024375,0.00022356,-0.04051949,0.11025117,-0.24536684,0.04430469,-0.
 11971271,0.26749606,0.00132738,0.00118630,0.00117079,-0.00089211,0.001
 62301,0.00014703,-0.00040318,-0.00142735,-0.00126810,0.00338733,0.0052
 3206,-0.00143020,0.00037253,-0.00051849,0.00020307,-0.00007206,0.00020
 356,0.00029676,0.00012797,0.00041903,0.00010723,-0.00010707,0.00004269
 ,0.00003170,-0.00005504,0.00008887,-0.00081166,-0.00009110,-0.00013060
 ,0.00004541,-0.00000107,0.00005105,0.00003183,-0.00003264,0.00037457,-
 0.00030322,0.00021638,-0.00008618,-0.00004539,0.00005368,-0.00004975,-
 0.00001346,0.00001432,-0.00011670,-0.00003982,-0.00005129,0.00010329,0
 .00011702,-0.00099511,0.00098092,-0.00014620,-0.00000587,0.00004288,-0
 .00003206,0.00003069,-0.00000535,-0.00001499,0.00001183,-0.00000448,-0
 .00000014,0.00003537,0.00003517,-0.00001767,-0.00159344,0.00138295,-0.
 00009894,-0.13834370,-0.12727735,0.00579448,0.00289171,0.00586587,0.00
 016854,0.14711971,-0.00037576,-0.00252744,-0.00375111,0.00352480,-0.00
 115660,0.00019032,-0.00067929,0.00141475,0.00049194,-0.01109900,-0.014
 92784,0.00403140,0.00017354,-0.00001441,0.00088595,0.00006955,0.000154
 03,0.00027800,-0.00001961,0.00002311,0.00118723,0.00003092,0.00000014,
 -0.00017684,-0.00001818,-0.00013279,0.00036246,-0.00005219,-0.00012572
 ,0.00007170,0.00000146,-0.00003151,0.00016782,-0.00081349,0.00048622,0
 .00010538,0.00028889,0.00004623,-0.00026503,-0.00024091,0.00001950,0.0
 0003457,-0.00005935,0.00006227,0.00020998,0.00025765,0.00019412,0.0002
 1451,-0.00010500,-0.00008668,-0.00055851,-0.00003144,0.00004215,0.0000
 8752,0.00000068,-0.00001533,0.00001926,-0.00002413,0.00001739,0.000049
 98,-0.00000955,0.00000516,-0.00002729,0.00098993,-0.00044345,0.0006760
 4,-0.12472776,-0.22704356,0.00437764,-0.00836723,-0.01161227,-0.000192
 80,0.13800397,0.24755871,0.00215368,-0.00291374,-0.00212153,0.00085240
 ,-0.00020080,0.00042010,-0.00038626,0.00031694,-0.00018624,-0.01643275
 ,-0.02144748,0.00126648,-0.00009875,0.00007600,-0.00178550,0.00012475,
 0.00024267,0.00007069,-0.00024236,0.00097627,-0.00114459,0.00010100,0.
 00001751,-0.00001688,-0.00026144,0.00052995,0.00047772,-0.00018804,0.0
 0000720,-0.00003063,0.00012111,-0.00007824,0.00032410,-0.00075033,0.00
 073023,0.00054480,0.00006452,0.00010525,-0.00028698,-0.00022230,-0.000
 02311,-0.00001946,0.00008092,0.00010166,0.00017926,0.00018331,-0.00010
 731,-0.00021902,0.00017998,0.00025599,0.00053460,-0.00002891,-0.000004
 59,0.00000896,-0.00000671,-0.00002215,0.00000976,0.00000461,-0.0000087
 0,-0.00000768,0.00000896,-0.00001441,0.00000608,-0.00018915,0.00006915
 ,-0.00008868,0.00664151,0.00834171,-0.04771838,0.01670515,0.02185443,0
 .00014437,-0.00651958,-0.00680048,0.05174281,-0.00010241,-0.00031012,0
 .00013764,0.00074020,-0.00128181,-0.00038519,-0.00365362,-0.00064936,-
 0.00145711,-0.00585211,0.00257295,0.00024757,-0.00006925,-0.00020479,0
 .00021332,-0.00000793,-0.00001794,0.00000255,-0.00013655,-0.00007607,0
 .00008483,0.00005686,-0.00001057,-0.00008389,0.00017769,-0.00059324,-0
 .00017939,0.00036745,0.00006646,0.00052826,0.00013012,0.00009137,-0.00
 019843,0.00113416,0.00048632,0.00019817,-0.00019504,0.00000915,-0.0001
 7156,-0.00005759,0.00002268,0.00008760,-0.00005003,0.00003341,0.000057
 98,0.00007502,0.00008202,0.00003086,0.00002645,-0.00005226,-0.00018607
 ,0.00001511,0.00001241,0.00001196,-0.00003048,-0.00000223,0.00001425,-
 0.00001640,-0.00000004,0.00001751,-0.00002111,0.00000304,-0.00001138,0
 .00003953,0.00002567,0.00029418,-0.30992398,0.07238346,-0.00474452,-0.
 00221080,0.00011213,0.00007912,-0.01307585,0.00484271,-0.00070593,0.33
 255960,-0.00199879,0.00005135,0.00034062,0.00173153,-0.00403140,-0.000
 88269,-0.00037757,0.00258580,0.00151126,0.02159271,-0.00394634,0.00201
 016,0.00004391,0.00003641,0.00012666,0.00000374,-0.00009690,0.00003216
 ,0.00004292,-0.00004013,-0.00011141,0.00003241,-0.00003012,-0.00002331
 ,-0.00059541,-0.00049454,0.00110820,-0.00004838,0.00036119,-0.00034590
 ,-0.00005972,-0.00007606,0.00010920,-0.00021423,-0.00155678,-0.0036481
 4,0.00119066,0.00018664,0.00016950,-0.00004091,-0.00017826,-0.00030581
 ,-0.00000901,-0.00001561,0.00003734,0.00009883,0.00011638,0.00007219,-
 0.00060954,0.00004160,-0.00050808,-0.00005723,-0.00001878,-0.00004013,
 0.00010336,-0.00006397,-0.00000390,0.00001035,-0.00000756,0.00002088,0
 .00003536,0.00001939,-0.00001021,-0.00013269,-0.00006629,0.00034794,0.
 06837394,-0.06791479,0.00208604,0.01470534,-0.00444563,-0.00060111,-0.
 02573015,0.00901067,-0.00108222,-0.07801401,0.06971408,-0.00195060,0.0
 0101041,0.00065579,0.00185681,-0.00397489,-0.00029106,-0.00077440,0.00
 251683,0.00031426,0.02788699,-0.00588465,-0.00192684,0.00012549,0.0002
 2032,0.00010507,-0.00005952,-0.00010718,0.00001000,0.00000350,-0.00001
 741,0.00000961,-0.00008892,-0.00008055,0.00005429,0.00030620,-0.000656
 76,0.00145045,0.00006539,0.00029439,-0.00169684,-0.00004650,-0.0001438
 7,0.00027224,-0.00018189,-0.00346419,-0.00388777,0.00140801,-0.0002140
 4,0.00036616,0.00004713,-0.00012425,-0.00041032,-0.00004766,-0.0000083
 7,-0.00005429,0.00001754,0.00006149,0.00033253,-0.00068764,-0.00029652
 ,-0.00056470,-0.00006485,-0.00006851,-0.00000460,0.00013992,0.00000021
 ,-0.00005136,0.00001396,0.00002387,0.00001651,0.00003285,-0.00002020,0
 .00001211,-0.00003827,0.00041029,0.00025401,-0.00921833,0.00431754,-0.
 04456293,-0.02704114,0.00618460,0.00057299,0.00238250,-0.00065873,-0.0
 0123113,0.00602631,-0.00048630,0.05028709,-0.09364282,0.09362550,0.037
 93130,-0.00391365,0.02764337,0.01116401,-0.00770012,0.00169118,-0.0015
 5889,0.00711696,-0.01847555,-0.00773718,0.00012058,-0.00004334,0.00021
 204,-0.00002334,-0.00006518,-0.00000017,-0.00001500,0.00002120,-0.0000
 3403,0.00001617,0.00000554,-0.00000866,-0.00043078,-0.00009678,-0.0003
 4325,-0.00029832,-0.00016399,0.00011801,0.00004151,-0.00000553,0.00004
 312,-0.00004036,-0.00122243,-0.00051439,-0.00123446,-0.00071625,0.0005
 7744,-0.00012775,0.00000342,-0.00004780,0.00003884,0.00007983,-0.00000
 148,-0.00002435,-0.00000414,0.00004325,0.00024667,-0.00000981,0.000139
 15,-0.00140328,-0.00056487,0.00068974,0.00000465,-0.00007959,0.0000320
 1,0.00001146,0.00001191,-0.00000123,0.00001549,0.00002721,-0.00001003,
 0.00004015,-0.00001934,0.00004976,-0.00216098,-0.00229388,0.00004388,-
 0.00003780,0.00006196,-0.00005405,0.00015809,-0.00060768,-0.00080846,-
 0.00011125,-0.00007877,-0.00004377,0.10455007,0.08970811,-0.26766050,-
 0.09000229,0.00023874,-0.00384053,0.00012263,0.00077318,0.00243601,-0.
 00155696,0.01022835,-0.01421128,-0.00871339,0.00042199,0.00012576,0.00
 068523,-0.00015225,-0.00027309,0.00003109,-0.00001528,0.00002435,-0.00
 005488,-0.00003031,-0.00002535,-0.00002690,-0.00061742,-0.00160207,0.0
 0014926,-0.00024020,0.00015878,-0.00017349,-0.00002009,-0.00034659,0.0
 0001235,0.00168342,-0.00011665,0.00075710,0.00017749,0.00022246,-0.000
 79194,-0.00021824,0.00039347,0.00016914,0.00009087,0.00005121,0.000334
 70,0.00035476,-0.00009424,-0.00011439,-0.00054180,0.00020427,-0.000176
 17,0.00000035,0.00019948,0.00085773,-0.00002084,0.00003740,-0.00003469
 ,0.00003232,-0.00001638,0.00005399,-0.00002598,-0.00002329,0.00002136,
 0.00007304,-0.00000614,0.00007011,-0.00238183,-0.00051220,0.00059636,-
 0.00000834,-0.00016818,-0.00026903,0.00007945,-0.00037316,-0.00074431,
 0.00000309,0.00011291,0.00018951,-0.09739607,0.28476337,0.04786172,-0.
 09266268,-0.04304310,-0.01177129,0.00292564,-0.00412105,0.00104433,-0.
 00359046,0.00531604,-0.00208473,-0.01022490,-0.00112906,-0.00051317,0.
 00005114,-0.00122748,0.00022785,0.00044919,-0.00005134,-0.00000627,0.0
 0000029,0.00002061,0.00000207,0.00000627,0.00002038,0.00062322,0.00419
 259,-0.00211194,0.00047137,0.00010144,0.00002362,0.00017105,0.00046192
 ,-0.00004667,0.00099383,0.00109604,-0.00242933,0.00123585,0.00071283,0
 .00010949,-0.00063935,0.00009253,-0.00025702,0.00024317,0.00018217,0.0
 0042332,0.00027839,-0.00038217,-0.00036794,-0.00082917,-0.00000641,-0.
 00019379,0.00139189,0.00016361,-0.00061099,-0.00000536,0.00000505,-0.0
 0001134,-0.00001960,-0.00002584,0.00000818,-0.00001200,0.00002058,-0.0
 0000208,0.00004410,0.00005472,-0.00002727,-0.00144987,-0.00408366,0.00
 189000,-0.00013572,0.00065854,0.00034404,0.00005830,-0.00104882,-0.000
 87480,0.00014458,0.00028148,0.00009675,-0.03910108,0.09765367,0.049345
 19,-0.05311749,-0.04666787,-0.01087930,-0.18577737,-0.06681864,-0.0122
 8412,0.02950589,0.01190488,0.00150454,0.00227817,0.02093668,-0.0044061
 3,0.00182158,0.00006945,0.00245633,-0.00066132,-0.00122254,0.00022043,
 -0.00008347,-0.00010240,-0.00012933,-0.00011091,-0.00000588,-0.0001291
 8,-0.00112344,-0.00876989,0.00536397,-0.00097120,0.00043944,-0.0001845
 0,-0.00002071,0.00018109,-0.00063932,0.00135741,-0.00164336,-0.0008491
 9,-0.00048832,-0.00029936,0.00028400,-0.00017974,0.00016559,-0.0003186
 4,-0.00050584,0.00019302,0.00016323,-0.00004153,-0.00001319,-0.0002152
 8,-0.00102079,0.00041528,0.00051722,0.00021748,-0.00037293,-0.00021190
 ,-0.00013797,0.00008041,0.00010118,-0.00011348,-0.00002941,0.00002997,
 -0.00021013,0.00000428,-0.00004982,0.00014251,-0.00010233,-0.00000880,
 -0.00048802,-0.00141615,0.00147914,-0.00001063,-0.00020311,0.00000826,
 -0.00008521,-0.00101299,-0.00040940,0.00019652,0.00006352,-0.00000149,
 0.00017074,-0.00159102,0.00159038,0.73815221,-0.02953545,-0.00113875,-
 0.00590158,-0.06351845,-0.20105821,-0.00750946,-0.01267335,-0.09818862
 ,-0.00632029,0.00892327,0.01446467,-0.00489549,0.00113093,0.00052495,0
 .00179086,-0.00049489,-0.00091563,0.00018477,-0.00003260,-0.00008170,-
 0.00011491,-0.00019916,-0.00018179,-0.00007228,-0.00224024,-0.00669802
 ,0.00419961,0.00165253,0.00152684,-0.00186597,-0.00014682,0.00012646,-
 0.00039396,0.00149533,0.00018598,0.00006543,-0.00036916,-0.00022962,0.
 00028835,-0.00015734,0.00009235,-0.00026258,-0.00034553,0.00015212,0.0
 0011923,0.00001565,-0.00003364,0.00001190,-0.00033726,0.00011304,0.000
 19884,0.00010063,-0.00030066,-0.00019911,-0.00008924,0.00005214,0.0000
 6768,-0.00007964,-0.00002090,0.00001772,-0.00010741,-0.00000514,-0.000
 03761,0.00012524,-0.00002449,0.00001523,-0.00068218,-0.00172824,0.0002
 7921,-0.00024998,-0.00002559,-0.00002785,-0.00034030,-0.00062952,-0.00
 022444,0.00047151,0.00070205,0.00093817,-0.00037854,-0.00059977,0.0031
 5927,-0.11735208,0.70520044,0.00322829,-0.00348378,0.01525184,-0.03769
 838,-0.04277598,-0.05881258,-0.00357637,-0.00230229,0.01632169,-0.0029
 2747,-0.00561472,0.00566370,-0.00035340,-0.00006207,-0.00030811,0.0000
 9336,0.00016875,-0.00004868,0.00002668,0.00000496,0.00001478,0.0000036
 7,0.00000889,0.00003840,-0.00055527,0.00099233,-0.00124605,0.00038945,
 0.00021351,-0.00019089,0.00001345,0.00013896,0.00007263,-0.00067004,0.
 00025386,-0.00074240,0.00005800,0.00004471,-0.00009650,0.00007276,-0.0
 0008387,0.00009375,0.00008765,-0.00005426,-0.00007034,-0.00007875,-0.0
 0004286,-0.00002376,-0.00000608,0.00005392,0.00005104,0.00002275,0.000
 08348,-0.00003587,0.00001606,-0.00001286,-0.00001157,0.00001405,0.0000
 1384,-0.00001100,0.00001025,0.00001020,0.00001032,-0.00001602,0.000021
 81,-0.00001155,0.00055070,0.00071256,-0.00011925,-0.00011506,0.0000276
 8,-0.00002119,0.00018846,0.00021907,0.00005606,-0.00006152,-0.00020379
 ,-0.00014458,-0.00041513,0.00078952,-0.00194755,0.15467751,0.14320901,
 0.14721200,-0.00129477,-0.00051944,-0.00026638,0.01666600,-0.01428496,
 -0.00507983,-0.00081073,-0.00610778,-0.00013794,0.00000024,0.00038909,
 -0.00005952,-0.00002637,0.00000938,-0.00004744,0.00000995,0.00001788,-
 0.00000248,0.00000200,0.00000028,0.00000345,-0.00000199,-0.00000698,0.
 00000150,-0.00000034,0.00013546,-0.00000167,0.00015365,0.00001265,-0.0
 0005507,-0.00000833,0.00000519,0.00001072,-0.00001899,0.00009242,-0.00
 001594,0.00002742,0.00001682,-0.00001861,-0.00001679,0.00000571,-0.000
 00339,0.00001572,0.00000565,0.00001419,0.00001903,-0.00001500,0.000002
 50,0.00000342,-0.00000981,-0.00002262,-0.00000555,-0.00000727,0.000018
 52,0.00000328,-0.00000248,-0.00000257,0.00000312,-0.00000038,0.0000004
 6,0.00000560,0.00000033,0.00000109,0.00000021,0.00000628,0.00000064,0.
 00001781,-0.00002179,0.00003263,0.00000399,0.00003244,0.00002001,0.000
 00549,0.00001083,0.00002693,0.00005730,0.00001797,0.00004270,-0.001764
 76,-0.00077553,0.00046485,-0.15265080,0.15838704,0.03546922,0.14725939
 ,0.00230379,0.00128992,0.00123141,0.01824323,-0.01985371,-0.00680333,-
 0.00469438,-0.00496288,-0.00154046,-0.00032098,-0.00126924,0.00118025,
 -0.00013984,0.00003703,-0.00016593,0.00004726,0.00008262,-0.00001540,0
 .00000985,0.00000590,0.00000747,-0.00000085,-0.00001444,0.00001159,-0.
 00003933,0.00055964,-0.00037239,0.00021125,0.00005438,-0.00016092,-0.0
 0002537,-0.00002342,0.00004924,-0.00021095,0.00013919,0.00001068,0.000
 03213,0.00000765,-0.00005889,0.00001599,-0.00000825,0.00003543,0.00004
 661,-0.00001994,-0.00001343,0.00000164,-0.00000346,0.00002019,0.000072
 64,-0.00002583,-0.00003014,-0.00001223,0.00003717,0.00003489,0.0000119
 7,-0.00000682,-0.00000946,0.00001097,0.00000361,-0.00000180,0.00001646
 ,0.00000110,0.00000450,-0.00000786,0.00001226,0.00000333,0.00016316,0.
 00020256,-0.00019722,-0.00002691,0.00002359,-0.00001012,-0.00003600,0.
 00013186,0.00007421,-0.00001238,0.00005714,0.00008891,-0.00080703,0.00
 104619,-0.00036595,0.15073026,-0.33588099,-0.10338421,-0.16259160,0.35
 771481,-0.00229763,0.00029277,-0.00079242,0.00855006,0.00950753,-0.007
 30639,-0.00021225,-0.00233823,0.00614513,0.00038927,0.00109145,-0.0008
 5027,0.00001041,0.00005386,0.00010485,-0.00003464,-0.00004905,0.000009
 15,0.00000144,-0.00000466,-0.00000825,-0.00002274,-0.00001819,0.000000
 97,-0.00021588,-0.00033253,0.00015018,0.00027306,0.00023582,-0.0001814
 0,0.00001414,0.00003072,0.00000528,0.00014192,-0.00003807,-0.00000639,
 -0.00001417,0.00000941,0.00003907,-0.00003138,0.00001266,-0.00004016,-
 0.00002902,0.00002071,0.00002299,0.00001308,0.00000323,-0.00001429,-0.
 00004542,0.00000223,0.00000775,-0.00000069,-0.00004178,-0.00002048,-0.
 00000663,0.00000346,0.00000626,-0.00000810,-0.00000514,0.00000267,-0.0
 0000916,-0.00000095,-0.00000390,0.00000692,-0.00000960,0.00000122,-0.0
 0000895,-0.00021759,0.00004731,-0.00004503,-0.00000035,0.00000658,0.00
 002966,-0.00007723,-0.00003891,-0.00002978,-0.00000953,0.00000536,-0.0
 0018012,-0.00036183,0.00112670,0.04318817,-0.13386600,-0.04535556,-0.0
 4434165,0.11083199,0.04648364,0.00276110,-0.00323998,-0.00062809,-0.02
 484053,0.00232306,-0.00878612,0.00341404,0.00332403,0.00257923,-0.0015
 2247,-0.00155139,0.00096076,-0.00014771,-0.00003810,-0.00017781,0.0000
 4965,0.00009739,-0.00002303,0.00000571,0.00000953,0.00000901,0.0000143
 6,0.00001643,0.00000982,0.00006500,0.00081090,-0.00062728,-0.00004641,
 -0.00005495,0.00008821,0.00002527,0.00001142,0.00004713,-0.00021523,-0
 .00025509,-0.00005492,0.00001820,0.00002878,-0.00002404,0.00001915,-0.
 00000748,0.00002380,0.00002166,-0.00001609,-0.00001475,-0.00001316,0.0
 0001737,-0.00002216,-0.00000587,0.00001861,0.00001457,-0.00000506,0.00
 002522,0.00000929,0.00000426,-0.00000313,-0.00000351,0.00000445,0.0000
 0134,-0.00000110,0.00000183,0.00000141,0.00000339,-0.00000688,-0.00000
 654,-0.00000153,0.00015198,0.00020541,-0.00006759,-0.00000620,0.000002
 43,0.00000415,0.00005225,0.00004864,0.00000154,-0.00006160,-0.00008014
 ,-0.00011035,0.00039764,0.00017005,-0.00027935,-0.37604415,0.05702748,
 -0.14844882,-0.00765421,-0.00299150,-0.00508490,0.40356294,-0.00108346
 ,-0.00444833,-0.00068680,-0.03258438,0.00943674,-0.01296890,0.00367684
 ,0.00253775,0.00183075,-0.00135756,0.00051252,0.00035928,0.00003251,-0
 .00002762,0.00003094,-0.00000939,-0.00001679,0.00000184,-0.00000333,-0
 .00000147,-0.00000187,0.00000405,0.00001068,-0.00000293,0.00004966,-0.
 00001675,-0.00003971,-0.00008927,-0.00002701,0.00008035,0.00001238,0.0
 0002396,-0.00002449,-0.00010954,-0.00030133,-0.00016874,-0.00002196,-0
 .00000221,-0.00000627,-0.00000022,0.00000698,-0.00000472,-0.00002062,0
 .00000157,0.00000111,-0.00001741,0.00000647,-0.00003549,-0.00010589,0.
 00004945,0.00005649,0.00001802,-0.00001150,-0.00000895,-0.00000731,0.0
 0000347,0.00000517,-0.00000522,-0.00000046,0.00000124,-0.00001608,0.00
 000200,-0.00000140,0.00000556,-0.00000908,-0.00000095,0.00000061,0.000
 02823,0.00017473,0.00001913,0.00000090,0.00000453,0.00000706,-0.000046
 03,-0.00002719,0.00000644,-0.00001246,-0.00005010,-0.00014234,0.000093
 76,0.00012193,0.06243924,-0.07539976,0.01105364,0.02519759,0.00066235,
 0.01527490,-0.05589510,0.06694396,-0.00372926,-0.00183742,0.00184535,0
 .00756029,0.01034057,-0.00346699,0.00156580,-0.00154517,-0.00247968,0.
 00156055,0.00304060,0.00078794,0.00034127,-0.00002755,0.00046584,-0.00
 011566,-0.00021829,0.00003399,-0.00001096,-0.00001923,-0.00002031,-0.0
 0001595,0.00000306,-0.00001875,-0.00037065,-0.00177838,0.00100538,-0.0
 0016948,0.00000821,-0.00001204,-0.00002396,0.00002853,-0.00010875,0.00
 011805,0.00017431,-0.00031863,-0.00006382,-0.00006995,0.00000277,-0.00
 001220,0.00000075,-0.00002014,-0.00004737,0.00001514,0.00000396,-0.000
 02510,-0.00003958,-0.00000643,-0.00009162,0.00003867,0.00008342,0.0000
 4752,-0.00003236,-0.00003965,-0.00001438,0.00000686,0.00001117,-0.0000
 1202,0.00000143,0.00000018,-0.00002289,0.00000383,-0.00000566,0.000019
 93,0.00000461,-0.00000802,0.00001001,-0.00022178,0.00018006,-0.0000030
 3,-0.00003182,0.00000857,-0.00003135,-0.00010392,-0.00001540,0.0000380
 8,0.00000891,0.00001118,-0.00018399,0.00052655,-0.00027155,-0.18086793
 ,0.00714626,-0.07558879,0.01394568,-0.00045445,0.00045331,0.16060442,-
 0.01496838,0.07748768\\-0.00000026,0.00000138,-0.00000421,-0.00000912,
 -0.00001345,-0.00001017,0.00000151,-0.00000197,-0.00000031,-0.00000047
 ,-0.00000382,0.00000287,0.00000053,0.00000111,0.00000213,0.00000036,0.
 00000254,0.00000330,0.00000041,0.00000006,0.00000350,0.00000029,0.0000
 0090,0.00000237,-0.00000119,0.00000317,0.00000045,0.00000020,0.0000005
 2,0.00000178,0.00000014,0.00000167,0.00000094,-0.00000009,0.00000003,-
 0.00000039,0.00000003,0.00000055,-0.00000073,0.00000008,0.00000101,-0.
 00000105,-0.00000004,-0.00000014,-0.00000045,-0.00000021,-0.00000127,0
 .00000024,-0.00000026,-0.00000125,0.00000028,0.00000025,0.00000176,-0.
 00000147,0.00000021,0.00000193,-0.00000157,-0.00000002,0.,-0.00000055,
 -0.00000029,-0.00000217,0.00000071,-0.00000030,-0.00000240,0.00000092,
 -0.00000087,-0.00000136,0.00000030,-0.00000022,-0.00000267,0.00000036,
 -0.00000004,-0.00000174,0.00000188,-0.00000028,-0.00000181,0.00000109,
 0.00000005,0.00000003,-0.00000142,0.00000413,0.00001085,0.00002158,-0.
 00000330,0.00000778,-0.00001211,0.00000875,-0.00000121,-0.00001028\\\@


 A true friend is someone who is there for
 you when he'd rather be anywhere else.
                               -- Len Wein
 Job cpu time:       0 days 14 hours  8 minutes 35.5 seconds.
 Elapsed time:       0 days  0 hours 53 minutes  5.2 seconds.
 File lengths (MBytes):  RWF=    831 Int=      0 D2E=      0 Chk=     36 Scr=      1
 Normal termination of Gaussian 16 at Sat Jan 30 13:14:59 2021.
