 Entering Gaussian System, Link 0=g16
 Initial command:
 /apps/gaussian/16/A.03/g16/l1.exe "/beegfs/scratch/user/q/tla25/Gau-118733.inp" -scrdir="/beegfs/scratch/user/q/tla25/"
 Entering Link 1 = /apps/gaussian/16/A.03/g16/l1.exe PID=    118734.
  
 Copyright (c) 1988,1990,1992,1993,1995,1998,2003,2009,2016,
            Gaussian, Inc.  All Rights Reserved.
  
 This is part of the Gaussian(R) 16 program.  It is based on
 the Gaussian(R) 09 system (copyright 2009, Gaussian, Inc.),
 the Gaussian(R) 03 system (copyright 2003, Gaussian, Inc.),
 the Gaussian(R) 98 system (copyright 1998, Gaussian, Inc.),
 the Gaussian(R) 94 system (copyright 1995, Gaussian, Inc.),
 the Gaussian 92(TM) system (copyright 1992, Gaussian, Inc.),
 the Gaussian 90(TM) system (copyright 1990, Gaussian, Inc.),
 the Gaussian 88(TM) system (copyright 1988, Gaussian, Inc.),
 the Gaussian 86(TM) system (copyright 1986, Carnegie Mellon
 University), and the Gaussian 82(TM) system (copyright 1983,
 Carnegie Mellon University). Gaussian is a federally registered
 trademark of Gaussian, Inc.
  
 This software contains proprietary and confidential information,
 including trade secrets, belonging to Gaussian, Inc.
  
 This software is provided under written license and may be
 used, copied, transmitted, or stored only in accord with that
 written license.
  
 The following legend is applicable only to US Government
 contracts under FAR:
  
                    RESTRICTED RIGHTS LEGEND
  
 Use, reproduction and disclosure by the US Government is
 subject to restrictions as set forth in subparagraphs (a)
 and (c) of the Commercial Computer Software - Restricted
 Rights clause in FAR 52.227-19.
  
 Gaussian, Inc.
 340 Quinnipiac St., Bldg. 40, Wallingford CT 06492
  
  
 ---------------------------------------------------------------
 Warning -- This program may not be used in any manner that
 competes with the business of Gaussian, Inc. or will provide
 assistance to any competitor of Gaussian, Inc.  The licensee
 of this program is prohibited from giving any competitor of
 Gaussian, Inc. access to this program.  By using this program,
 the user acknowledges that Gaussian, Inc. is engaged in the
 business of creating and licensing software in the field of
 computational chemistry and represents and warrants to the
 licensee that it is not a competitor of Gaussian, Inc. and that
 it will not use this program in any manner prohibited above.
 ---------------------------------------------------------------
  

 Cite this work as:
 Gaussian 16, Revision A.03,
 M. J. Frisch, G. W. Trucks, H. B. Schlegel, G. E. Scuseria, 
 M. A. Robb, J. R. Cheeseman, G. Scalmani, V. Barone, 
 G. A. Petersson, H. Nakatsuji, X. Li, M. Caricato, A. V. Marenich, 
 J. Bloino, B. G. Janesko, R. Gomperts, B. Mennucci, H. P. Hratchian, 
 J. V. Ortiz, A. F. Izmaylov, J. L. Sonnenberg, D. Williams-Young, 
 F. Ding, F. Lipparini, F. Egidi, J. Goings, B. Peng, A. Petrone, 
 T. Henderson, D. Ranasinghe, V. G. Zakrzewski, J. Gao, N. Rega, 
 G. Zheng, W. Liang, M. Hada, M. Ehara, K. Toyota, R. Fukuda, 
 J. Hasegawa, M. Ishida, T. Nakajima, Y. Honda, O. Kitao, H. Nakai, 
 T. Vreven, K. Throssell, J. A. Montgomery, Jr., J. E. Peralta, 
 F. Ogliaro, M. J. Bearpark, J. J. Heyd, E. N. Brothers, K. N. Kudin, 
 V. N. Staroverov, T. A. Keith, R. Kobayashi, J. Normand, 
 K. Raghavachari, A. P. Rendell, J. C. Burant, S. S. Iyengar, 
 J. Tomasi, M. Cossi, J. M. Millam, M. Klene, C. Adamo, R. Cammi, 
 J. W. Ochterski, R. L. Martin, K. Morokuma, O. Farkas, 
 J. B. Foresman, and D. J. Fox, Gaussian, Inc., Wallingford CT, 2016.
 
 ******************************************
 Gaussian 16:  ES64L-G16RevA.03 25-Dec-2016
                28-Feb-2021 
 ******************************************
 %nprocshared=16
 Will use up to   16 processors via shared memory.
 %mem=48GB
 ----------------------------------------------------------------------
 # wB97XD def2tzvp, opt=(ts, noeigen, calcfc, maxcycles=70, maxstep=8),
  freq=noraman, scrf=(iefpcm, solvent=water)
 ----------------------------------------------------------------------
 1/5=1,6=70,8=8,10=4,11=1,18=20,26=3,38=1/1,3;
 2/9=110,12=2,17=6,18=5,40=1/2;
 3/5=44,7=101,11=2,25=1,30=1,70=2201,71=2,72=1,74=-58,140=1/1,2,3;
 4//1;
 5/5=2,38=5,53=1/2;
 8/6=4,10=90,11=11/1;
 11/6=1,8=1,9=11,15=111,16=1/1,2,10;
 10/6=1,13=1/2;
 6/7=2,8=2,9=2,10=2,28=1/1;
 7/10=1,18=20,25=1/1,2,3,16;
 1/5=1,6=70,8=8,10=4,11=1,18=20,26=3/3(2);
 2/9=110/2;
 99//99;
 2/9=110/2;
 3/5=44,7=101,11=2,25=1,30=1,70=2205,71=1,72=1,74=-58/1,2,3;
 4/5=5,16=3,69=1/1;
 5/5=2,38=5,53=1/2;
 7//1,2,3,16;
 1/5=1,6=70,8=8,11=1,18=20,26=3/3(-5);
 2/9=110/2;
 6/7=2,8=2,9=2,10=2,19=2,28=1/1;
 99/9=1/99;
 ------------------------
 1_iteration/TS-974-1.out
 ------------------------
 Symbolic Z-matrix:
 Charge =  0 Multiplicity = 1
 C                     0.00199   0.32248  -0.97389 
 C                    -1.31898   0.76951  -0.52247 
 O                    -1.62297   1.97211  -0.55371 
 C                     0.98131  -0.2059   -0.12973 
 C                     1.78179   2.16433   0.71314 
 H                     0.94905   2.53828   0.12211 
 H                     1.92646   2.78295   1.59538 
 H                     2.69052   2.14673   0.11854 
 N                     1.45666   0.7937    1.13723 
 H                     0.6556    0.80567   1.76455 
 H                     2.22836   0.36399   1.64309 
 Cl                    2.55025  -0.48412  -0.95526 
 Cl                    0.596    -1.67677   0.89291 
 H                     0.41637   0.96997  -1.73734 
 N                    -2.23356  -0.14501  -0.07942 
 C                    -2.26464  -1.5252   -0.51388 
 C                    -3.46808   0.32785   0.50737 
 H                    -1.39302  -1.73814  -1.12529 
 H                    -2.27833  -2.20885   0.3375 
 H                    -3.168    -1.69936  -1.10886 
 H                    -3.30692   1.29044   0.9842 
 H                    -4.25714   0.44106  -0.24486 
 H                    -3.80753  -0.39369   1.25272 
 

 GradGradGradGradGradGradGradGradGradGradGradGradGradGradGradGradGradGrad
 Berny optimization.
 Initialization pass.
                           ----------------------------
                           !    Initial Parameters    !
                           ! (Angstroms and Degrees)  !
 --------------------------                            --------------------------
 ! Name  Definition              Value          Derivative Info.                !
 --------------------------------------------------------------------------------
 ! R1    R(1,2)                  1.4658         calculate D2E/DX2 analytically  !
 ! R2    R(1,4)                  1.3967         calculate D2E/DX2 analytically  !
 ! R3    R(1,14)                 1.0834         calculate D2E/DX2 analytically  !
 ! R4    R(2,3)                  1.2408         calculate D2E/DX2 analytically  !
 ! R5    R(2,15)                 1.3671         calculate D2E/DX2 analytically  !
 ! R6    R(4,9)                  1.6824         calculate D2E/DX2 analytically  !
 ! R7    R(4,12)                 1.7946         calculate D2E/DX2 analytically  !
 ! R8    R(4,13)                 1.8324         calculate D2E/DX2 analytically  !
 ! R9    R(5,6)                  1.0875         calculate D2E/DX2 analytically  !
 ! R10   R(5,7)                  1.0872         calculate D2E/DX2 analytically  !
 ! R11   R(5,8)                  1.0861         calculate D2E/DX2 analytically  !
 ! R12   R(5,9)                  1.4711         calculate D2E/DX2 analytically  !
 ! R13   R(9,10)                 1.0175         calculate D2E/DX2 analytically  !
 ! R14   R(9,11)                 1.0179         calculate D2E/DX2 analytically  !
 ! R15   R(15,16)                1.4473         calculate D2E/DX2 analytically  !
 ! R16   R(15,17)                1.4464         calculate D2E/DX2 analytically  !
 ! R17   R(16,18)                1.0858         calculate D2E/DX2 analytically  !
 ! R18   R(16,19)                1.092          calculate D2E/DX2 analytically  !
 ! R19   R(16,20)                1.0956         calculate D2E/DX2 analytically  !
 ! R20   R(17,21)                1.0862         calculate D2E/DX2 analytically  !
 ! R21   R(17,22)                1.096          calculate D2E/DX2 analytically  !
 ! R22   R(17,23)                1.0915         calculate D2E/DX2 analytically  !
 ! A1    A(2,1,4)              124.1327         calculate D2E/DX2 analytically  !
 ! A2    A(2,1,14)             112.2986         calculate D2E/DX2 analytically  !
 ! A3    A(4,1,14)             112.5691         calculate D2E/DX2 analytically  !
 ! A4    A(1,2,3)              120.5713         calculate D2E/DX2 analytically  !
 ! A5    A(1,2,15)             119.9119         calculate D2E/DX2 analytically  !
 ! A6    A(3,2,15)             119.5108         calculate D2E/DX2 analytically  !
 ! A7    A(1,4,9)              115.3717         calculate D2E/DX2 analytically  !
 ! A8    A(1,4,12)             113.1799         calculate D2E/DX2 analytically  !
 ! A9    A(1,4,13)             119.5723         calculate D2E/DX2 analytically  !
 ! A10   A(9,4,12)             101.0416         calculate D2E/DX2 analytically  !
 ! A11   A(9,4,13)              96.6649         calculate D2E/DX2 analytically  !
 ! A12   A(12,4,13)            108.4284         calculate D2E/DX2 analytically  !
 ! A13   A(6,5,7)              110.3202         calculate D2E/DX2 analytically  !
 ! A14   A(6,5,8)              110.4094         calculate D2E/DX2 analytically  !
 ! A15   A(6,5,9)              107.9277         calculate D2E/DX2 analytically  !
 ! A16   A(7,5,8)              110.0073         calculate D2E/DX2 analytically  !
 ! A17   A(7,5,9)              109.0031         calculate D2E/DX2 analytically  !
 ! A18   A(8,5,9)              109.1253         calculate D2E/DX2 analytically  !
 ! A19   A(4,9,5)              113.5111         calculate D2E/DX2 analytically  !
 ! A20   A(4,9,10)             104.4086         calculate D2E/DX2 analytically  !
 ! A21   A(4,9,11)             109.7334         calculate D2E/DX2 analytically  !
 ! A22   A(5,9,10)             109.923          calculate D2E/DX2 analytically  !
 ! A23   A(5,9,11)             111.6563         calculate D2E/DX2 analytically  !
 ! A24   A(10,9,11)            107.1835         calculate D2E/DX2 analytically  !
 ! A25   A(2,15,16)            123.7105         calculate D2E/DX2 analytically  !
 ! A26   A(2,15,17)            118.932          calculate D2E/DX2 analytically  !
 ! A27   A(16,15,17)           114.5339         calculate D2E/DX2 analytically  !
 ! A28   A(15,16,18)           109.8055         calculate D2E/DX2 analytically  !
 ! A29   A(15,16,19)           111.3007         calculate D2E/DX2 analytically  !
 ! A30   A(15,16,20)           109.4093         calculate D2E/DX2 analytically  !
 ! A31   A(18,16,19)           109.0457         calculate D2E/DX2 analytically  !
 ! A32   A(18,16,20)           108.9608         calculate D2E/DX2 analytically  !
 ! A33   A(19,16,20)           108.2729         calculate D2E/DX2 analytically  !
 ! A34   A(15,17,21)           109.9483         calculate D2E/DX2 analytically  !
 ! A35   A(15,17,22)           111.7039         calculate D2E/DX2 analytically  !
 ! A36   A(15,17,23)           109.0482         calculate D2E/DX2 analytically  !
 ! A37   A(21,17,22)           108.4547         calculate D2E/DX2 analytically  !
 ! A38   A(21,17,23)           109.4012         calculate D2E/DX2 analytically  !
 ! A39   A(22,17,23)           108.2433         calculate D2E/DX2 analytically  !
 ! D1    D(4,1,2,3)            112.1106         calculate D2E/DX2 analytically  !
 ! D2    D(4,1,2,15)           -68.7815         calculate D2E/DX2 analytically  !
 ! D3    D(14,1,2,3)           -29.0719         calculate D2E/DX2 analytically  !
 ! D4    D(14,1,2,15)          150.036          calculate D2E/DX2 analytically  !
 ! D5    D(2,1,4,9)            -57.7647         calculate D2E/DX2 analytically  !
 ! D6    D(2,1,4,12)          -173.4634         calculate D2E/DX2 analytically  !
 ! D7    D(2,1,4,13)            56.8673         calculate D2E/DX2 analytically  !
 ! D8    D(14,1,4,9)            83.3278         calculate D2E/DX2 analytically  !
 ! D9    D(14,1,4,12)          -32.3709         calculate D2E/DX2 analytically  !
 ! D10   D(14,1,4,13)         -162.0402         calculate D2E/DX2 analytically  !
 ! D11   D(1,2,15,16)          -27.3076         calculate D2E/DX2 analytically  !
 ! D12   D(1,2,15,17)          172.7853         calculate D2E/DX2 analytically  !
 ! D13   D(3,2,15,16)          151.8098         calculate D2E/DX2 analytically  !
 ! D14   D(3,2,15,17)           -8.0973         calculate D2E/DX2 analytically  !
 ! D15   D(1,4,9,5)            -49.083          calculate D2E/DX2 analytically  !
 ! D16   D(1,4,9,10)            70.6161         calculate D2E/DX2 analytically  !
 ! D17   D(1,4,9,11)          -174.788          calculate D2E/DX2 analytically  !
 ! D18   D(12,4,9,5)            73.3554         calculate D2E/DX2 analytically  !
 ! D19   D(12,4,9,10)         -166.9455         calculate D2E/DX2 analytically  !
 ! D20   D(12,4,9,11)          -52.3495         calculate D2E/DX2 analytically  !
 ! D21   D(13,4,9,5)          -176.336          calculate D2E/DX2 analytically  !
 ! D22   D(13,4,9,10)          -56.6369         calculate D2E/DX2 analytically  !
 ! D23   D(13,4,9,11)           57.9591         calculate D2E/DX2 analytically  !
 ! D24   D(6,5,9,4)             51.4146         calculate D2E/DX2 analytically  !
 ! D25   D(6,5,9,10)           -65.0931         calculate D2E/DX2 analytically  !
 ! D26   D(6,5,9,11)           176.0894         calculate D2E/DX2 analytically  !
 ! D27   D(7,5,9,4)            171.2457         calculate D2E/DX2 analytically  !
 ! D28   D(7,5,9,10)            54.738          calculate D2E/DX2 analytically  !
 ! D29   D(7,5,9,11)           -64.0795         calculate D2E/DX2 analytically  !
 ! D30   D(8,5,9,4)            -68.5937         calculate D2E/DX2 analytically  !
 ! D31   D(8,5,9,10)           174.8986         calculate D2E/DX2 analytically  !
 ! D32   D(8,5,9,11)            56.0811         calculate D2E/DX2 analytically  !
 ! D33   D(2,15,16,18)           7.2587         calculate D2E/DX2 analytically  !
 ! D34   D(2,15,16,19)         128.1015         calculate D2E/DX2 analytically  !
 ! D35   D(2,15,16,20)        -112.2823         calculate D2E/DX2 analytically  !
 ! D36   D(17,15,16,18)        167.9592         calculate D2E/DX2 analytically  !
 ! D37   D(17,15,16,19)        -71.198          calculate D2E/DX2 analytically  !
 ! D38   D(17,15,16,20)         48.4181         calculate D2E/DX2 analytically  !
 ! D39   D(2,15,17,21)         -29.67           calculate D2E/DX2 analytically  !
 ! D40   D(2,15,17,22)          90.7889         calculate D2E/DX2 analytically  !
 ! D41   D(2,15,17,23)        -149.615          calculate D2E/DX2 analytically  !
 ! D42   D(16,15,17,21)        168.6389         calculate D2E/DX2 analytically  !
 ! D43   D(16,15,17,22)        -70.9023         calculate D2E/DX2 analytically  !
 ! D44   D(16,15,17,23)         48.6938         calculate D2E/DX2 analytically  !
 --------------------------------------------------------------------------------
 Trust Radius=8.00D-02 FncErr=1.00D-07 GrdErr=1.00D-06 EigMax=2.50D+02 EigMin=1.00D-04
 Number of steps in this run=     70 maximum allowed number of steps=    138.
 Search for a saddle point of order  1.
 GradGradGradGradGradGradGradGradGradGradGradGradGradGradGradGradGradGrad

                          Input orientation:                          
 ---------------------------------------------------------------------
 Center     Atomic      Atomic             Coordinates (Angstroms)
 Number     Number       Type             X           Y           Z
 ---------------------------------------------------------------------
      1          6           0        0.001990    0.322480   -0.973890
      2          6           0       -1.318980    0.769510   -0.522470
      3          8           0       -1.622970    1.972110   -0.553710
      4          6           0        0.981310   -0.205900   -0.129730
      5          6           0        1.781790    2.164330    0.713140
      6          1           0        0.949050    2.538280    0.122110
      7          1           0        1.926460    2.782950    1.595380
      8          1           0        2.690520    2.146730    0.118540
      9          7           0        1.456660    0.793700    1.137230
     10          1           0        0.655600    0.805670    1.764550
     11          1           0        2.228360    0.363990    1.643090
     12         17           0        2.550250   -0.484120   -0.955260
     13         17           0        0.596000   -1.676770    0.892910
     14          1           0        0.416370    0.969970   -1.737340
     15          7           0       -2.233560   -0.145010   -0.079420
     16          6           0       -2.264640   -1.525200   -0.513880
     17          6           0       -3.468080    0.327850    0.507370
     18          1           0       -1.393020   -1.738140   -1.125290
     19          1           0       -2.278330   -2.208850    0.337500
     20          1           0       -3.168000   -1.699360   -1.108860
     21          1           0       -3.306920    1.290440    0.984200
     22          1           0       -4.257140    0.441060   -0.244860
     23          1           0       -3.807530   -0.393690    1.252720
 ---------------------------------------------------------------------
                    Distance matrix (angstroms):
                    1          2          3          4          5
     1  C    0.000000
     2  C    1.465803   0.000000
     3  O    2.353365   1.240819   0.000000
     4  C    1.396732   2.529230   3.421368   0.000000
     5  C    3.066948   3.617600   3.637891   2.639922   0.000000
     6  H    2.647245   2.947540   2.718928   2.755901   1.087479
     7  H    4.044582   4.367163   4.227825   3.578063   1.087183
     8  H    3.427752   4.287624   4.369051   2.918545   1.086117
     9  N    2.606711   3.234094   3.705678   1.682363   1.471118
    10  H    2.856525   3.021710   3.453519   2.172017   2.054197
    11  H    3.436136   4.175849   4.716431   2.241160   2.074959
    12  Cl   2.672935   4.090212   4.859020   1.794569   3.223100
    13  Cl   2.799070   3.413903   4.508976   1.832407   4.023986
    14  H    1.083425   2.127800   2.562064   2.070323   3.048888
    15  N    2.452816   1.367149   2.253878   3.215840   4.699387
    16  C    2.960260   2.481943   3.555911   3.524814   5.611756
    17  C    3.773002   2.423688   2.689593   4.526351   5.565621
    18  H    2.493016   2.580152   3.761055   2.996054   5.356166
    19  H    3.650649   3.245078   4.324833   3.854266   5.979162
    20  H    3.762299   3.139753   4.021816   4.517288   6.538211
    21  H    3.964839   2.548201   2.380237   4.676408   5.170312
    22  H    4.322700   2.969466   3.062410   5.279505   6.352645
    23  H    4.470250   3.270660   3.692222   4.987928   6.170503
                    6          7          8          9         10
     6  H    0.000000
     7  H    1.784858   0.000000
     8  H    1.784949   1.780343   0.000000
     9  N    2.081273   2.094691   2.095431   0.000000
    10  H    2.405340   2.356553   2.940866   1.017532   0.000000
    11  H    2.945768   2.438193   2.390817   1.017873   1.638111
    12  Cl   3.586010   4.191494   2.845012   2.684637   3.556771
    13  Cl   4.299468   4.706664   4.427845   2.627480   2.631695
    14  H    2.490160   4.083417   3.162406   3.062095   3.513895
    15  N    4.167693   5.355714   5.434871   3.997391   3.556861
    16  C    5.219594   6.369808   6.199729   4.685247   4.376300
    17  C    4.954338   6.025972   6.433340   4.986663   4.337459
    18  H    5.032799   6.233879   5.771882   4.432819   4.361077
    19  H    5.744355   6.646848   6.611240   4.858500   4.442043
    20  H    6.035145   7.304625   7.114856   5.713821   5.399220
    21  H    4.518139   5.476257   6.119795   4.791854   4.067618
    22  H    5.624714   6.863515   7.163194   5.889146   5.320309
    23  H    5.700858   6.564076   7.068575   5.397678   4.649727
                   11         12         13         14         15
    11  H    0.000000
    12  Cl   2.752149   0.000000
    13  Cl   2.718836   2.942319   0.000000
    14  H    3.883018   2.698049   3.735735   0.000000
    15  N    4.809870   4.875134   3.361268   3.318736   0.000000
    16  C    5.329973   4.945890   3.191441   3.861417   1.447289
    17  C    5.808665   6.246509   4.547954   4.532107   1.446361
    18  H    5.019688   4.141359   2.834272   3.313964   2.082886
    19  H    5.351105   5.287826   2.975460   4.655241   2.106006
    20  H    6.399324   5.847973   4.263249   4.513094   2.085409
    21  H    5.650820   6.420047   4.903616   4.623026   2.084204
    22  H    6.755147   6.906604   5.415966   4.934464   2.113226
    23  H    6.095772   6.730878   4.600743   5.351762   2.076974
                   16         17         18         19         20
    16  C    0.000000
    17  C    2.434135   0.000000
    18  H    1.085766   3.352576   0.000000
    19  H    1.091976   2.806993   1.773442   0.000000
    20  H    1.095624   2.609948   1.775480   1.772865   0.000000
    21  H    3.355357   1.086241   4.157554   3.704220   3.652274
    22  H    2.812224   1.096030   3.705031   3.358103   2.552277
    23  H    2.604170   1.091509   3.645866   2.543794   2.773235
                   21         22         23
    21  H    0.000000
    22  H    1.770580   0.000000
    23  H    1.777360   1.772485   0.000000
 Stoichiometry    C6H12Cl2N2O
 Framework group  C1[X(C6H12Cl2N2O)]
 Deg. of freedom    63
 Full point group                 C1      NOp   1
 Largest Abelian subgroup         C1      NOp   1
 Largest concise Abelian subgroup C1      NOp   1
                         Standard orientation:                         
 ---------------------------------------------------------------------
 Center     Atomic      Atomic             Coordinates (Angstroms)
 Number     Number       Type             X           Y           Z
 ---------------------------------------------------------------------
      1          6           0        0.001990    0.322480   -0.973890
      2          6           0       -1.318980    0.769508   -0.522470
      3          8           0       -1.622971    1.972108   -0.553710
      4          6           0        0.981311   -0.205900   -0.129730
      5          6           0        1.781788    2.164331    0.713140
      6          1           0        0.949048    2.538280    0.122110
      7          1           0        1.926458    2.782951    1.595380
      8          1           0        2.690518    2.146732    0.118540
      9          7           0        1.456660    0.793701    1.137230
     10          1           0        0.655600    0.805670    1.764550
     11          1           0        2.228360    0.363992    1.643090
     12         17           0        2.550251   -0.484118   -0.955260
     13         17           0        0.596002   -1.676770    0.892910
     14          1           0        0.416370    0.969970   -1.737340
     15          7           0       -2.233559   -0.145013   -0.079420
     16          6           0       -2.264638   -1.525203   -0.513880
     17          6           0       -3.468080    0.327846    0.507370
     18          1           0       -1.393018   -1.738142   -1.125290
     19          1           0       -2.278327   -2.208853    0.337500
     20          1           0       -3.167998   -1.699364   -1.108860
     21          1           0       -3.306921    1.290436    0.984200
     22          1           0       -4.257140    0.441055   -0.244860
     23          1           0       -3.807529   -0.393694    1.252720
 ---------------------------------------------------------------------
 Rotational constants (GHZ):           1.1733596           0.5852296           0.4849866
 Standard basis: def2TZVP (5D, 7F)
 There are   480 symmetry adapted cartesian basis functions of A   symmetry.
 There are   425 symmetry adapted basis functions of A   symmetry.
   425 basis functions,   693 primitive gaussians,   480 cartesian basis functions
    52 alpha electrons       52 beta electrons
       nuclear repulsion energy       882.1051884437 Hartrees.
 NAtoms=   23 NActive=   23 NUniq=   23 SFac= 1.00D+00 NAtFMM=   60 NAOKFM=F Big=F
 Integral buffers will be    131072 words long.
 Raffenetti 2 integral format.
 Two-electron integral symmetry is turned on.
 Nuclear repulsion after empirical dispersion term =      882.0891587521 Hartrees.
 Force inversion solution in PCM.
 ------------------------------------------------------------------------------
 Polarizable Continuum Model (PCM)
 =================================
 Model                : PCM.
 Atomic radii         : UFF (Universal Force Field).
 Polarization charges : Total charges.
 Charge compensation  : None.
 Solution method      : Matrix inversion.
 Cavity type          : Scaled VdW (van der Waals Surface) (Alpha=1.100).
 Cavity algorithm     : GePol (No added spheres)
                        Default sphere list used, NSphG=   23.
                        Lebedev-Laikov grids with approx.  5.0 points / Ang**2.
                        Smoothing algorithm: York/Karplus (Gamma=1.0000).
                        Polarization charges: spherical gaussians, with
                                              point-specific exponents (IZeta= 3).
                        Self-potential: point-specific (ISelfS= 7).
                        Self-field    : sphere-specific E.n sum rule (ISelfD= 2).
 1st derivatives      : Analytical E(r).r(x)/FMM algorithm (CHGder, D1EAlg=3).
                        Cavity 1st derivative terms included.
 2nd derivatives      : Analytical E(r).r(xy)/FMM algorithm (CHGder, D2EAlg=3).
                        Cavity 2nd derivative terms included.
 Solvent              : Water, Eps=  78.355300 Eps(inf)=   1.777849
 ------------------------------------------------------------------------------
 One-electron integrals computed using PRISM.
   1 Symmetry operations used in ECPInt.
 ECPInt:  NShTT=   15051 NPrTT=   47277 LenC2=   14253 LenP2D=   33452.
 LDataN:  DoStor=T MaxTD1= 6 Len=  172
 NBasis=   425 RedAO= T EigKep=  1.36D-04  NBF=   425
 NBsUse=   425 1.00D-06 EigRej= -1.00D+00 NBFU=   425
 ExpMin= 9.52D-02 ExpMax= 6.95D+04 ExpMxC= 2.37D+03 IAcc=3 IRadAn=         5 AccDes= 0.00D+00
 Harris functional with IExCor= 4639 and IRadAn=       5 diagonalized for initial guess.
 HarFok:  IExCor= 4639 AccDes= 0.00D+00 IRadAn=         5 IDoV= 1 UseB2=F ITyADJ=14
 ICtDFT=  3500011 ScaDFX=  1.000000  1.000000  1.000000  1.000000
 FoFCou: FMM=F IPFlag=           0 FMFlag=      100000 FMFlg1=           0
         NFxFlg=           0 DoJE=T BraDBF=F KetDBF=T FulRan=T
         wScrn=  0.000000 ICntrl=       500 IOpCl=  0 I1Cent=   200000004 NGrid=           0
         NMat0=    1 NMatS0=      1 NMatT0=    0 NMatD0=    1 NMtDS0=    0 NMtDT0=    0
 Petite list used in FoFCou.
 Requested convergence on RMS density matrix=1.00D-08 within 128 cycles.
 Requested convergence on MAX density matrix=1.00D-06.
 Requested convergence on             energy=1.00D-06.
 No special actions if energy rises.
 Inv3:  Mode=1 IEnd=     9187500.
 Iteration    1 A*A^-1 deviation from unit magnitude is 5.22D-15 for   1731.
 Iteration    1 A*A^-1 deviation from orthogonality  is 1.62D-15 for   1072    636.
 Iteration    1 A^-1*A deviation from unit magnitude is 5.66D-15 for   1731.
 Iteration    1 A^-1*A deviation from orthogonality  is 1.57D-15 for   1244    353.
 Error on total polarization charges =  0.01360
 SCF Done:  E(RwB97XD) =  -1340.98354706     A.U. after   15 cycles
            NFock= 15  Conv=0.47D-08     -V/T= 2.0025
 DoSCS=F DFT=T ScalE2(SS,OS)=  1.000000  1.000000
 Range of M.O.s used for correlation:     1   425
 NBasis=   425 NAE=    52 NBE=    52 NFC=     0 NFV=     0
 NROrb=    425 NOA=    52 NOB=    52 NVA=   373 NVB=   373

 **** Warning!!: The largest alpha MO coefficient is  0.19218948D+02

   1 Symmetry operations used in ECPInt.
 ECPInt:  NShTT=   15051 NPrTT=   47277 LenC2=   14253 LenP2D=   33452.
 LDataN:  DoStor=T MaxTD1= 7 Len=  274
 Symmetrizing basis deriv contribution to polar:
 IMax=3 JMax=2 DiffMx= 0.00D+00
 G2DrvN: will do    24 centers at a time, making    1 passes.
 Calling FoFCou, ICntrl=  3107 FMM=F I1Cent=   0 AccDes= 0.00D+00.
 NEqPCM:  Using equilibrium solvation (IEInf=0, Eps=  78.3553, EpsInf=   1.7778)
 G2PCM: DoFxE=T DoFxN=T DoGrad=T DoDP/DQ/DG/TGxP=FFFF NFrqRd=   0 IEInf=0 SqF1=F DoCFld=F IF1Alg=4.
 End of G2Drv F.D. properties file   721 does not exist.
 End of G2Drv F.D. properties file   722 does not exist.
 End of G2Drv F.D. properties file   788 does not exist.
          IDoAtm=11111111111111111111111
 NEqPCM:  Using equilibrium solvation (IEInf=0, Eps=  78.3553, EpsInf=   1.7778)
          Differentiating once with respect to nuclear coordinates.
 CalDSu exits because no D1Ps are significant.
          There are    72 degrees of freedom in the 1st order CPHF.  IDoFFX=6 NUNeed=     0.
     66 vectors produced by pass  0 Test12= 2.69D-14 1.39D-09 XBig12= 1.39D-01 9.33D-02.
 AX will form    66 AO Fock derivatives at one time.
     66 vectors produced by pass  1 Test12= 2.69D-14 1.39D-09 XBig12= 3.65D-02 4.06D-02.
     66 vectors produced by pass  2 Test12= 2.69D-14 1.39D-09 XBig12= 1.11D-03 5.02D-03.
     66 vectors produced by pass  3 Test12= 2.69D-14 1.39D-09 XBig12= 1.64D-05 6.22D-04.
     66 vectors produced by pass  4 Test12= 2.69D-14 1.39D-09 XBig12= 1.74D-07 5.65D-05.
     66 vectors produced by pass  5 Test12= 2.69D-14 1.39D-09 XBig12= 1.54D-09 5.02D-06.
     66 vectors produced by pass  6 Test12= 2.69D-14 1.39D-09 XBig12= 1.14D-11 3.36D-07.
     25 vectors produced by pass  7 Test12= 2.69D-14 1.39D-09 XBig12= 7.67D-14 2.59D-08.
      1 vectors produced by pass  8 Test12= 2.69D-14 1.39D-09 XBig12= 1.17D-15 2.78D-09.
 InvSVY:  IOpt=1 It=  1 EMax= 4.44D-16
 Solved reduced A of dimension   488 with    72 vectors.
 End of Minotr F.D. properties file   721 does not exist.
 End of Minotr F.D. properties file   722 does not exist.
 End of Minotr F.D. properties file   788 does not exist.

 **********************************************************************

            Population analysis using the SCF density.

 **********************************************************************

 Orbital symmetries:
       Occupied  (A) (A) (A) (A) (A) (A) (A) (A) (A) (A) (A) (A)
                 (A) (A) (A) (A) (A) (A) (A) (A) (A) (A) (A) (A)
                 (A) (A) (A) (A) (A) (A) (A) (A) (A) (A) (A) (A)
                 (A) (A) (A) (A) (A) (A) (A) (A) (A) (A) (A) (A)
                 (A) (A) (A) (A)
       Virtual   (A) (A) (A) (A) (A) (A) (A) (A) (A) (A) (A) (A)
                 (A) (A) (A) (A) (A) (A) (A) (A) (A) (A) (A) (A)
                 (A) (A) (A) (A) (A) (A) (A) (A) (A) (A) (A) (A)
                 (A) (A) (A) (A) (A) (A) (A) (A) (A) (A) (A) (A)
                 (A) (A) (A) (A) (A) (A) (A) (A) (A) (A) (A) (A)
                 (A) (A) (A) (A) (A) (A) (A) (A) (A) (A) (A) (A)
                 (A) (A) (A) (A) (A) (A) (A) (A) (A) (A) (A) (A)
                 (A) (A) (A) (A) (A) (A) (A) (A) (A) (A) (A) (A)
                 (A) (A) (A) (A) (A) (A) (A) (A) (A) (A) (A) (A)
                 (A) (A) (A) (A) (A) (A) (A) (A) (A) (A) (A) (A)
                 (A) (A) (A) (A) (A) (A) (A) (A) (A) (A) (A) (A)
                 (A) (A) (A) (A) (A) (A) (A) (A) (A) (A) (A) (A)
                 (A) (A) (A) (A) (A) (A) (A) (A) (A) (A) (A) (A)
                 (A) (A) (A) (A) (A) (A) (A) (A) (A) (A) (A) (A)
                 (A) (A) (A) (A) (A) (A) (A) (A) (A) (A) (A) (A)
                 (A) (A) (A) (A) (A) (A) (A) (A) (A) (A) (A) (A)
                 (A) (A) (A) (A) (A) (A) (A) (A) (A) (A) (A) (A)
                 (A) (A) (A) (A) (A) (A) (A) (A) (A) (A) (A) (A)
                 (A) (A) (A) (A) (A) (A) (A) (A) (A) (A) (A) (A)
                 (A) (A) (A) (A) (A) (A) (A) (A) (A) (A) (A) (A)
                 (A) (A) (A) (A) (A) (A) (A) (A) (A) (A) (A) (A)
                 (A) (A) (A) (A) (A) (A) (A) (A) (A) (A) (A) (A)
                 (A) (A) (A) (A) (A) (A) (A) (A) (A) (A) (A) (A)
                 (A) (A) (A) (A) (A) (A) (A) (A) (A) (A) (A) (A)
                 (A) (A) (A) (A) (A) (A) (A) (A) (A) (A) (A) (A)
                 (A) (A) (A) (A) (A) (A) (A) (A) (A) (A) (A) (A)
                 (A) (A) (A) (A) (A) (A) (A) (A) (A) (A) (A) (A)
                 (A) (A) (A) (A) (A) (A) (A) (A) (A) (A) (A) (A)
                 (A) (A) (A) (A) (A) (A) (A) (A) (A) (A) (A) (A)
                 (A) (A) (A) (A) (A) (A) (A) (A) (A) (A) (A) (A)
                 (A) (A) (A) (A) (A) (A) (A) (A) (A) (A) (A) (A)
                 (A)
 The electronic state is 1-A.
 Alpha  occ. eigenvalues -- -101.70558-101.69873 -19.19724 -14.53743 -14.45085
 Alpha  occ. eigenvalues --  -10.45668 -10.37345 -10.32968 -10.30108 -10.30045
 Alpha  occ. eigenvalues --  -10.24377  -9.59158  -9.58490  -7.33810  -7.33110
 Alpha  occ. eigenvalues --   -7.32924  -7.32907  -7.32276  -7.32248  -1.12392
 Alpha  occ. eigenvalues --   -1.09679  -1.02353  -0.99055  -0.92631  -0.85065
 Alpha  occ. eigenvalues --   -0.81386  -0.80844  -0.77855  -0.69598  -0.66944
 Alpha  occ. eigenvalues --   -0.62501  -0.61032  -0.59550  -0.56540  -0.56195
 Alpha  occ. eigenvalues --   -0.54819  -0.53728  -0.50524  -0.49613  -0.49242
 Alpha  occ. eigenvalues --   -0.48048  -0.47785  -0.46817  -0.45619  -0.43674
 Alpha  occ. eigenvalues --   -0.42474  -0.41204  -0.40230  -0.39059  -0.34251
 Alpha  occ. eigenvalues --   -0.31333  -0.26734
 Alpha virt. eigenvalues --    0.05671   0.07218   0.09693   0.10118   0.12797
 Alpha virt. eigenvalues --    0.13962   0.14776   0.15359   0.16887   0.17698
 Alpha virt. eigenvalues --    0.18409   0.18990   0.19492   0.20131   0.20900
 Alpha virt. eigenvalues --    0.21163   0.21886   0.22434   0.24166   0.25588
 Alpha virt. eigenvalues --    0.26916   0.27420   0.28546   0.30322   0.30579
 Alpha virt. eigenvalues --    0.31602   0.32129   0.32788   0.33427   0.35212
 Alpha virt. eigenvalues --    0.35779   0.36760   0.38060   0.38860   0.39462
 Alpha virt. eigenvalues --    0.40067   0.40863   0.41491   0.41889   0.42594
 Alpha virt. eigenvalues --    0.43583   0.43931   0.44317   0.45570   0.46673
 Alpha virt. eigenvalues --    0.47639   0.48031   0.49326   0.50627   0.50838
 Alpha virt. eigenvalues --    0.51028   0.52127   0.52528   0.53705   0.54227
 Alpha virt. eigenvalues --    0.54611   0.55367   0.55874   0.56420   0.56787
 Alpha virt. eigenvalues --    0.57436   0.58534   0.59160   0.60050   0.61857
 Alpha virt. eigenvalues --    0.62574   0.62986   0.63547   0.64396   0.65175
 Alpha virt. eigenvalues --    0.66041   0.67702   0.69567   0.69644   0.71975
 Alpha virt. eigenvalues --    0.72753   0.72893   0.73941   0.76012   0.77808
 Alpha virt. eigenvalues --    0.80124   0.82060   0.82263   0.83011   0.84262
 Alpha virt. eigenvalues --    0.85544   0.87203   0.90457   0.92517   0.93925
 Alpha virt. eigenvalues --    0.95831   0.96331   0.96925   0.98257   1.00329
 Alpha virt. eigenvalues --    1.03786   1.04828   1.06520   1.07243   1.09474
 Alpha virt. eigenvalues --    1.09893   1.11086   1.12379   1.13791   1.15669
 Alpha virt. eigenvalues --    1.16588   1.17521   1.19476   1.20450   1.23323
 Alpha virt. eigenvalues --    1.23720   1.25446   1.26733   1.29580   1.32456
 Alpha virt. eigenvalues --    1.34777   1.37174   1.38967   1.41807   1.45733
 Alpha virt. eigenvalues --    1.46090   1.47795   1.49858   1.52306   1.54511
 Alpha virt. eigenvalues --    1.54911   1.56529   1.58069   1.59165   1.61380
 Alpha virt. eigenvalues --    1.62309   1.62521   1.63842   1.64463   1.64987
 Alpha virt. eigenvalues --    1.65335   1.67075   1.67439   1.68492   1.69698
 Alpha virt. eigenvalues --    1.70754   1.73183   1.77017   1.77884   1.78883
 Alpha virt. eigenvalues --    1.79472   1.80732   1.81850   1.85122   1.86029
 Alpha virt. eigenvalues --    1.87060   1.87198   1.88595   1.89743   1.91069
 Alpha virt. eigenvalues --    1.91512   1.91859   1.93236   1.94562   1.95736
 Alpha virt. eigenvalues --    1.97083   1.97941   1.98575   1.99758   2.00793
 Alpha virt. eigenvalues --    2.02349   2.03288   2.04378   2.05878   2.07300
 Alpha virt. eigenvalues --    2.08004   2.08510   2.11349   2.11974   2.12909
 Alpha virt. eigenvalues --    2.14536   2.15531   2.15706   2.17458   2.19358
 Alpha virt. eigenvalues --    2.19524   2.20274   2.21653   2.23156   2.24319
 Alpha virt. eigenvalues --    2.25209   2.26212   2.26448   2.28915   2.30808
 Alpha virt. eigenvalues --    2.31739   2.33059   2.33687   2.34724   2.36261
 Alpha virt. eigenvalues --    2.36404   2.37315   2.38004   2.40093   2.40834
 Alpha virt. eigenvalues --    2.41460   2.43314   2.43773   2.45859   2.46617
 Alpha virt. eigenvalues --    2.48292   2.49290   2.50047   2.50589   2.52082
 Alpha virt. eigenvalues --    2.55835   2.57014   2.58811   2.59077   2.60311
 Alpha virt. eigenvalues --    2.62984   2.64312   2.65798   2.66290   2.67915
 Alpha virt. eigenvalues --    2.68908   2.69685   2.72379   2.72791   2.75570
 Alpha virt. eigenvalues --    2.76113   2.78321   2.79835   2.81288   2.83052
 Alpha virt. eigenvalues --    2.83864   2.89799   2.90377   2.91829   2.93452
 Alpha virt. eigenvalues --    2.94760   2.99940   3.00331   3.00577   3.02659
 Alpha virt. eigenvalues --    3.04663   3.07701   3.09214   3.11835   3.12606
 Alpha virt. eigenvalues --    3.14954   3.15989   3.16859   3.18352   3.20366
 Alpha virt. eigenvalues --    3.21204   3.22696   3.24533   3.25895   3.27441
 Alpha virt. eigenvalues --    3.28712   3.30728   3.31233   3.31523   3.33804
 Alpha virt. eigenvalues --    3.35083   3.38248   3.38535   3.39850   3.41454
 Alpha virt. eigenvalues --    3.42585   3.43130   3.44918   3.46281   3.49915
 Alpha virt. eigenvalues --    3.50633   3.53410   3.55993   3.57053   3.57274
 Alpha virt. eigenvalues --    3.60239   3.61280   3.62707   3.64296   3.65019
 Alpha virt. eigenvalues --    3.66752   3.67602   3.69818   3.70109   3.71493
 Alpha virt. eigenvalues --    3.74393   3.77256   3.80554   3.82190   3.85049
 Alpha virt. eigenvalues --    3.90112   3.91788   3.93046   3.97925   4.00465
 Alpha virt. eigenvalues --    4.03017   4.06705   4.10547   4.14833   4.18239
 Alpha virt. eigenvalues --    4.20635   4.21315   4.23479   4.26658   4.28445
 Alpha virt. eigenvalues --    4.32092   4.34386   4.37167   4.38987   4.41984
 Alpha virt. eigenvalues --    4.45299   4.48864   4.50357   4.52510   4.54543
 Alpha virt. eigenvalues --    4.60845   4.62477   4.73724   4.74852   4.88645
 Alpha virt. eigenvalues --    4.90175   4.96425   5.01000   5.03692   5.06957
 Alpha virt. eigenvalues --    5.08604   5.09744   5.12786   5.15243   5.17706
 Alpha virt. eigenvalues --    5.20526   5.24165   5.29170   5.30884   5.34230
 Alpha virt. eigenvalues --    5.36838   5.39806   5.41166   5.44518   5.54387
 Alpha virt. eigenvalues --    5.57850   5.60453   5.71121   5.76522   5.80116
 Alpha virt. eigenvalues --    5.85257   5.88686   6.05274   6.22738   6.40828
 Alpha virt. eigenvalues --    6.52911   6.69252   6.79158   6.95434   7.17642
 Alpha virt. eigenvalues --    7.21288  10.85437  10.88014  10.90066  10.92351
 Alpha virt. eigenvalues --   11.39846  11.43580  22.29160  22.46389  22.53155
 Alpha virt. eigenvalues --   22.59486  22.75439  23.47204  25.64019  25.68057
 Alpha virt. eigenvalues --   32.24626  32.87061  44.05064
          Condensed to atoms (all electrons):
               1          2          3          4          5          6
     1  C    5.985107   0.313573  -0.136195   0.381925   0.012048   0.005340
     2  C    0.313573   4.595219   0.651112  -0.023512  -0.000562  -0.005462
     3  O   -0.136195   0.651112   8.132871  -0.001982  -0.011568   0.021586
     4  C    0.381925  -0.023512  -0.001982   4.693007  -0.032967  -0.012073
     5  C    0.012048  -0.000562  -0.011568  -0.032967   4.933266   0.397096
     6  H    0.005340  -0.005462   0.021586  -0.012073   0.397096   0.482682
     7  H   -0.000034   0.000058  -0.000049   0.005779   0.397718  -0.015615
     8  H   -0.009946   0.000405   0.000498   0.004000   0.407145  -0.017144
     9  N   -0.123166   0.033059   0.006481   0.140898   0.246531  -0.027110
    10  H   -0.016432   0.000202  -0.000203   0.004525  -0.015845  -0.003503
    11  H    0.012673  -0.001405  -0.000080  -0.016394  -0.018814   0.004225
    12  Cl  -0.074979  -0.001025  -0.000383   0.346424  -0.007316  -0.000317
    13  Cl  -0.091172   0.004472  -0.000341   0.356432   0.004742   0.000540
    14  H    0.421740  -0.050192   0.005557  -0.024242  -0.005787   0.000051
    15  N   -0.150659   0.340511  -0.145134   0.045956  -0.001964   0.001825
    16  C   -0.020841  -0.060022   0.001285  -0.012416   0.000034   0.000029
    17  C    0.004730  -0.067345  -0.000294   0.000576   0.000047  -0.000184
    18  H    0.013472  -0.010610   0.000589  -0.005525   0.000025  -0.000039
    19  H    0.004536   0.005458  -0.000314  -0.002640  -0.000006   0.000017
    20  H   -0.004031  -0.003069   0.000528   0.001900  -0.000002  -0.000004
    21  H    0.003700  -0.009222   0.013825  -0.000941   0.000088  -0.000002
    22  H   -0.002917  -0.007805   0.000830   0.000305   0.000000  -0.000010
    23  H    0.002283   0.012575   0.002434  -0.000496   0.000010  -0.000006
               7          8          9         10         11         12
     1  C   -0.000034  -0.009946  -0.123166  -0.016432   0.012673  -0.074979
     2  C    0.000058   0.000405   0.033059   0.000202  -0.001405  -0.001025
     3  O   -0.000049   0.000498   0.006481  -0.000203  -0.000080  -0.000383
     4  C    0.005779   0.004000   0.140898   0.004525  -0.016394   0.346424
     5  C    0.397718   0.407145   0.246531  -0.015845  -0.018814  -0.007316
     6  H   -0.015615  -0.017144  -0.027110  -0.003503   0.004225  -0.000317
     7  H    0.478356  -0.014408  -0.018911  -0.004732  -0.003482   0.000271
     8  H   -0.014408   0.485085  -0.030022   0.004429  -0.005465   0.007708
     9  N   -0.018911  -0.030022   6.415890   0.349901   0.351290  -0.055815
    10  H   -0.004732   0.004429   0.349901   0.385489  -0.018145   0.004912
    11  H   -0.003482  -0.005465   0.351290  -0.018145   0.381720   0.001761
    12  Cl   0.000271   0.007708  -0.055815   0.004912   0.001761  16.946694
    13  Cl  -0.000242   0.000212  -0.085983   0.001338   0.004146  -0.058086
    14  H    0.000253   0.000812  -0.002513   0.000094  -0.000380  -0.002989
    15  N    0.000041   0.000010  -0.003558   0.001427  -0.000046  -0.000301
    16  C   -0.000001  -0.000001  -0.001203   0.000112   0.000085   0.000207
    17  C    0.000002  -0.000005   0.000002   0.000098  -0.000002   0.000022
    18  H    0.000001  -0.000005   0.000631  -0.000028  -0.000017   0.000622
    19  H   -0.000000   0.000001   0.000239  -0.000051  -0.000004   0.000025
    20  H    0.000000  -0.000000   0.000010   0.000011  -0.000002  -0.000006
    21  H   -0.000007   0.000001   0.000097  -0.000084   0.000000   0.000002
    22  H    0.000000  -0.000000  -0.000006   0.000010  -0.000000  -0.000000
    23  H   -0.000001   0.000000  -0.000012  -0.000035   0.000001   0.000001
              13         14         15         16         17         18
     1  C   -0.091172   0.421740  -0.150659  -0.020841   0.004730   0.013472
     2  C    0.004472  -0.050192   0.340511  -0.060022  -0.067345  -0.010610
     3  O   -0.000341   0.005557  -0.145134   0.001285  -0.000294   0.000589
     4  C    0.356432  -0.024242   0.045956  -0.012416   0.000576  -0.005525
     5  C    0.004742  -0.005787  -0.001964   0.000034   0.000047   0.000025
     6  H    0.000540   0.000051   0.001825   0.000029  -0.000184  -0.000039
     7  H   -0.000242   0.000253   0.000041  -0.000001   0.000002   0.000001
     8  H    0.000212   0.000812   0.000010  -0.000001  -0.000005  -0.000005
     9  N   -0.085983  -0.002513  -0.003558  -0.001203   0.000002   0.000631
    10  H    0.001338   0.000094   0.001427   0.000112   0.000098  -0.000028
    11  H    0.004146  -0.000380  -0.000046   0.000085  -0.000002  -0.000017
    12  Cl  -0.058086  -0.002989  -0.000301   0.000207   0.000022   0.000622
    13  Cl  17.000939   0.005026  -0.003165  -0.010989   0.001547  -0.000767
    14  H    0.005026   0.507310   0.005721   0.000348  -0.000337   0.000467
    15  N   -0.003165   0.005721   6.749941   0.261100   0.276655  -0.033495
    16  C   -0.010989   0.000348   0.261100   4.951177  -0.054636   0.414447
    17  C    0.001547  -0.000337   0.276655  -0.054636   4.893919   0.007417
    18  H   -0.000767   0.000467  -0.033495   0.414447   0.007417   0.500477
    19  H    0.001378  -0.000085  -0.052374   0.430629  -0.009998  -0.028183
    20  H    0.001400   0.000068  -0.035375   0.387108   0.003256  -0.011987
    21  H    0.000015  -0.000089  -0.036943   0.007957   0.401445  -0.000393
    22  H   -0.000036   0.000053  -0.040215  -0.007094   0.431897   0.000309
    23  H    0.000041  -0.000011  -0.048092  -0.003924   0.398865   0.000058
              19         20         21         22         23
     1  C    0.004536  -0.004031   0.003700  -0.002917   0.002283
     2  C    0.005458  -0.003069  -0.009222  -0.007805   0.012575
     3  O   -0.000314   0.000528   0.013825   0.000830   0.002434
     4  C   -0.002640   0.001900  -0.000941   0.000305  -0.000496
     5  C   -0.000006  -0.000002   0.000088   0.000000   0.000010
     6  H    0.000017  -0.000004  -0.000002  -0.000010  -0.000006
     7  H   -0.000000   0.000000  -0.000007   0.000000  -0.000001
     8  H    0.000001  -0.000000   0.000001  -0.000000   0.000000
     9  N    0.000239   0.000010   0.000097  -0.000006  -0.000012
    10  H   -0.000051   0.000011  -0.000084   0.000010  -0.000035
    11  H   -0.000004  -0.000002   0.000000  -0.000000   0.000001
    12  Cl   0.000025  -0.000006   0.000002  -0.000000   0.000001
    13  Cl   0.001378   0.001400   0.000015  -0.000036   0.000041
    14  H   -0.000085   0.000068  -0.000089   0.000053  -0.000011
    15  N   -0.052374  -0.035375  -0.036943  -0.040215  -0.048092
    16  C    0.430629   0.387108   0.007957  -0.007094  -0.003924
    17  C   -0.009998   0.003256   0.401445   0.431897   0.398865
    18  H   -0.028183  -0.011987  -0.000393   0.000309   0.000058
    19  H    0.545931  -0.035957   0.000726  -0.001636   0.004565
    20  H   -0.035957   0.568691  -0.000719   0.007988  -0.006170
    21  H    0.000726  -0.000719   0.527902  -0.031226  -0.014038
    22  H   -0.001636   0.007988  -0.031226   0.559761  -0.038643
    23  H    0.004565  -0.006170  -0.014038  -0.038643   0.558092
 Mulliken charges:
               1
     1  C   -0.530756
     2  C    0.283585
     3  O   -0.541053
     4  C    0.151465
     5  C   -0.303916
     6  H    0.168078
     7  H    0.175005
     8  H    0.166690
     9  N   -0.196731
    10  H    0.306507
    11  H    0.308336
    12  Cl  -0.107433
    13  Cl  -0.131447
    14  H    0.139124
    15  N   -0.131865
    16  C   -0.283391
    17  C   -0.287675
    18  H    0.152534
    19  H    0.137743
    20  H    0.126360
    21  H    0.137906
    22  H    0.128433
    23  H    0.132501
 Sum of Mulliken charges =  -0.00000
 Mulliken charges with hydrogens summed into heavy atoms:
               1
     1  C   -0.391633
     2  C    0.283585
     3  O   -0.541053
     4  C    0.151465
     5  C    0.205856
     9  N    0.418112
    12  Cl  -0.107433
    13  Cl  -0.131447
    15  N   -0.131865
    16  C    0.133246
    17  C    0.111165
 APT charges:
               1
     1  C   -0.719695
     2  C   -0.236378
     3  O   -0.165565
     4  C   -0.487799
     5  C   -1.119127
     6  H    0.150883
     7  H    0.666860
     8  H    0.489509
     9  N   -0.616357
    10  H    0.404652
    11  H    0.735117
    12  Cl   0.194780
    13  Cl   0.074852
    14  H    0.404421
    15  N    0.120236
    16  C   -0.988260
    17  C   -1.342943
    18  H    0.101271
    19  H    0.356859
    20  H    0.608440
    21  H    0.306405
    22  H    0.584633
    23  H    0.477206
 Sum of APT charges =  -0.00000
 APT charges with hydrogens summed into heavy atoms:
               1
     1  C   -0.315273
     2  C   -0.236378
     3  O   -0.165565
     4  C   -0.487799
     5  C    0.188124
     9  N    0.523412
    12  Cl   0.194780
    13  Cl   0.074852
    15  N    0.120236
    16  C    0.078310
    17  C    0.025301
 Electronic spatial extent (au):  <R**2>=           2469.9891
 Charge=             -0.0000 electrons
 Dipole moment (field-independent basis, Debye):
    X=              3.8097    Y=              0.0718    Z=              6.2819  Tot=              7.3472
 Quadrupole moment (field-independent basis, Debye-Ang):
   XX=            -72.8980   YY=            -86.3130   ZZ=            -76.7227
   XY=             16.1939   XZ=              4.2507   YZ=              7.1032
 Traceless Quadrupole moment (field-independent basis, Debye-Ang):
   XX=              5.7466   YY=             -7.6685   ZZ=              1.9219
   XY=             16.1939   XZ=              4.2507   YZ=              7.1032
 Octapole moment (field-independent basis, Debye-Ang**2):
  XXX=             10.6281  YYY=            -10.3270  ZZZ=             24.6050  XYY=             26.5498
  XXY=             -2.5157  XXZ=             19.8319  XZZ=             13.3227  YZZ=              7.1333
  YYZ=             15.6872  XYZ=              0.3917
 Hexadecapole moment (field-independent basis, Debye-Ang**3):
 XXXX=          -1840.5502 YYYY=           -869.2805 ZZZZ=           -387.8577 XXXY=             48.3823
 XXXZ=             13.8935 YYYX=             69.3772 YYYZ=             25.6208 ZZZX=             18.3853
 ZZZY=              9.4346 XXYY=           -474.9257 XXZZ=           -365.5247 YYZZ=           -198.6211
 XXYZ=             22.7945 YYXZ=             -2.8156 ZZXY=             13.1164
 N-N= 8.820891587521D+02 E-N=-4.934060728195D+03  KE= 1.337643792599D+03
  Exact polarizability:   0.000   0.000   0.000   0.000   0.000   0.000
 Approx polarizability: 143.793   0.467 141.642  -2.093  -7.081 125.985
   1 Symmetry operations used in ECPInt.
 ECPInt:  NShTT=   15051 NPrTT=   47277 LenC2=   14253 LenP2D=   33452.
 LDataN:  DoStor=T MaxTD1= 8 Len=  415
 D2PCM: PCM CHGder 2nd derivatives, FixD1E=F FixD2E=F DoIter=F DoCFld=F I1PDM=0
 Calling FoFJK, ICntrl=    100147 FMM=F ISym2X=0 I1Cent= 0 IOpClX= 0 NMat=1 NMatS=1 NMatT=0.
 ***** Axes restored to original set *****
 -------------------------------------------------------------------
 Center     Atomic                   Forces (Hartrees/Bohr)
 Number     Number              X              Y              Z
 -------------------------------------------------------------------
      1        6           0.000017055    0.000309232   -0.000242743
      2        6          -0.000213321    0.000025297   -0.000585662
      3        8          -0.000172391   -0.000050643   -0.000509494
      4        6          -0.000278306   -0.000917392   -0.000377146
      5        6          -0.000124800   -0.000021179    0.000026853
      6        1          -0.000027777    0.000056071    0.000110786
      7        1           0.000128720   -0.000035471    0.000003194
      8        1          -0.000077426   -0.000007891   -0.000118945
      9        7           0.000228972    0.000444791    0.000452651
     10        1          -0.000037028   -0.000124086   -0.000046894
     11        1           0.000051158    0.000104890    0.000006030
     12       17           0.000015167   -0.000022664    0.000009267
     13       17          -0.000025128    0.000142121   -0.000059209
     14        1           0.000185898    0.000278160    0.000317119
     15        7           0.000702481   -0.000271499    0.001544614
     16        6          -0.000215836    0.000069185   -0.000354765
     17        6          -0.000133758    0.000059359   -0.000211295
     18        1          -0.000018246   -0.000018739   -0.000005006
     19        1          -0.000016592    0.000000776   -0.000002091
     20        1           0.000014508   -0.000001448   -0.000031694
     21        1           0.000018777   -0.000081257    0.000167995
     22        1           0.000039439    0.000139976   -0.000005572
     23        1          -0.000061567   -0.000077589   -0.000087992
 -------------------------------------------------------------------
 Cartesian Forces:  Max     0.001544614 RMS     0.000294047
 FormGI is forming the generalized inverse of G from B-inverse, IUseBI=4.

 GradGradGradGradGradGradGradGradGradGradGradGradGradGradGradGradGradGrad
 Berny optimization.
 Internal  Forces:  Max     0.000624960 RMS     0.000128264
 Search for a saddle point.
 Step number   1 out of a maximum of   70
 All quantities printed in internal units (Hartrees-Bohrs-Radians)
 Swapping is turned off.
 Second derivative matrix not updated -- analytic derivatives used.
 ITU=  0
     Eigenvalues ---   -0.00892   0.00076   0.00138   0.00239   0.00326
     Eigenvalues ---    0.00418   0.00615   0.01071   0.01273   0.03249
     Eigenvalues ---    0.03401   0.04132   0.04650   0.04777   0.05114
     Eigenvalues ---    0.05947   0.06087   0.06144   0.06175   0.06295
     Eigenvalues ---    0.06481   0.08439   0.09397   0.10957   0.12772
     Eigenvalues ---    0.13126   0.13514   0.13641   0.15529   0.16160
     Eigenvalues ---    0.16774   0.16853   0.17341   0.17616   0.18080
     Eigenvalues ---    0.18423   0.19540   0.21063   0.22879   0.23437
     Eigenvalues ---    0.23568   0.27581   0.29402   0.31763   0.32623
     Eigenvalues ---    0.32727   0.33535   0.33957   0.34177   0.35203
     Eigenvalues ---    0.35379   0.35434   0.35625   0.36036   0.36110
     Eigenvalues ---    0.38335   0.39236   0.43536   0.44214   0.44311
     Eigenvalues ---    0.46521   0.53323   0.73320
 Eigenvectors required to have negative eigenvalues:
                          R6        D7        D5        D10       R8
   1                   -0.63490   0.36711   0.31051   0.26300   0.22527
                          D8        D6        D3        D4        A10
   1                    0.20639   0.16587   0.16305   0.16203   0.11750
 RFO step:  Lambda0=3.417454307D-06 Lambda=-5.82446378D-04.
 Linear search not attempted -- option 19 set.
 Maximum step size (   0.080) exceeded in Quadratic search.
    -- Step size scaled by   0.908
 Iteration  1 RMS(Cart)=  0.05030478 RMS(Int)=  0.00174792
 Iteration  2 RMS(Cart)=  0.00360586 RMS(Int)=  0.00041636
 Iteration  3 RMS(Cart)=  0.00000669 RMS(Int)=  0.00041634
 Iteration  4 RMS(Cart)=  0.00000000 RMS(Int)=  0.00041634
 Variable       Old X    -DE/DX   Delta X   Delta X   Delta X     New X
                                 (Linear)    (Quad)   (Total)
    R1        2.76997  -0.00005   0.00000  -0.01249  -0.01249   2.75748
    R2        2.63944   0.00007   0.00000   0.00414   0.00414   2.64358
    R3        2.04738   0.00001   0.00000   0.00011   0.00011   2.04748
    R4        2.34481   0.00000   0.00000  -0.00033  -0.00033   2.34447
    R5        2.58354   0.00021   0.00000   0.00964   0.00964   2.59318
    R6        3.17921   0.00062   0.00000   0.03382   0.03382   3.21302
    R7        3.39124   0.00001   0.00000   0.00481   0.00481   3.39606
    R8        3.46275  -0.00013   0.00000  -0.03335  -0.03335   3.42940
    R9        2.05504  -0.00002   0.00000  -0.00023  -0.00023   2.05480
   R10        2.05448  -0.00000   0.00000   0.00029   0.00029   2.05477
   R11        2.05246   0.00000   0.00000   0.00069   0.00069   2.05315
   R12        2.78001  -0.00004   0.00000  -0.00278  -0.00278   2.77723
   R13        1.92286   0.00000   0.00000  -0.00041  -0.00041   1.92244
   R14        1.92350  -0.00000   0.00000  -0.00031  -0.00031   1.92319
   R15        2.73498   0.00007   0.00000   0.00332   0.00332   2.73830
   R16        2.73323   0.00007   0.00000   0.00113   0.00113   2.73436
   R17        2.05180  -0.00001   0.00000  -0.00023  -0.00023   2.05157
   R18        2.06354   0.00000   0.00000  -0.00039  -0.00039   2.06315
   R19        2.07043   0.00000   0.00000   0.00104   0.00104   2.07147
   R20        2.05270   0.00001   0.00000   0.00115   0.00115   2.05385
   R21        2.07120  -0.00000   0.00000   0.00094   0.00094   2.07213
   R22        2.06265  -0.00000   0.00000  -0.00103  -0.00103   2.06163
    A1        2.16653   0.00005   0.00000   0.02087   0.02080   2.18732
    A2        1.95998  -0.00001   0.00000  -0.00352  -0.00360   1.95638
    A3        1.96470  -0.00006   0.00000  -0.00548  -0.00556   1.95914
    A4        2.10437  -0.00008   0.00000  -0.00084  -0.00085   2.10351
    A5        2.09286   0.00010   0.00000   0.00462   0.00461   2.09747
    A6        2.08586  -0.00001   0.00000  -0.00365  -0.00367   2.08219
    A7        2.01362  -0.00003   0.00000  -0.00889  -0.00894   2.00468
    A8        1.97536  -0.00002   0.00000  -0.00339  -0.00353   1.97183
    A9        2.08693   0.00004   0.00000   0.01184   0.01186   2.09879
   A10        1.76351  -0.00001   0.00000  -0.01024  -0.01033   1.75318
   A11        1.68712  -0.00000   0.00000   0.00585   0.00588   1.69300
   A12        1.89243   0.00001   0.00000   0.00247   0.00248   1.89491
   A13        1.92545  -0.00001   0.00000   0.00044   0.00043   1.92588
   A14        1.92701  -0.00002   0.00000  -0.00436  -0.00436   1.92265
   A15        1.88369   0.00003   0.00000   0.00373   0.00372   1.88742
   A16        1.91999   0.00000   0.00000  -0.00096  -0.00096   1.91903
   A17        1.90246  -0.00001   0.00000   0.00205   0.00204   1.90450
   A18        1.90460   0.00000   0.00000  -0.00074  -0.00074   1.90386
   A19        1.98114   0.00001   0.00000  -0.00336  -0.00337   1.97778
   A20        1.82227   0.00000   0.00000   0.00115   0.00116   1.82343
   A21        1.91521  -0.00001   0.00000  -0.00230  -0.00231   1.91290
   A22        1.91852   0.00000   0.00000   0.00321   0.00321   1.92173
   A23        1.94877  -0.00000   0.00000  -0.00028  -0.00029   1.94848
   A24        1.87071   0.00001   0.00000   0.00203   0.00203   1.87274
   A25        2.15915  -0.00006   0.00000  -0.01546  -0.01781   2.14134
   A26        2.07575  -0.00001   0.00000  -0.01559  -0.01797   2.05778
   A27        1.99899  -0.00001   0.00000  -0.00589  -0.00841   1.99058
   A28        1.91647   0.00004   0.00000   0.00287   0.00287   1.91934
   A29        1.94256  -0.00001   0.00000  -0.00042  -0.00042   1.94215
   A30        1.90955   0.00001   0.00000   0.00213   0.00212   1.91168
   A31        1.90321  -0.00000   0.00000  -0.00063  -0.00063   1.90258
   A32        1.90173  -0.00003   0.00000  -0.00413  -0.00413   1.89759
   A33        1.88972   0.00000   0.00000   0.00002   0.00002   1.88974
   A34        1.91896   0.00003   0.00000   0.00335   0.00334   1.92230
   A35        1.94960   0.00001   0.00000   0.00568   0.00568   1.95528
   A36        1.90325  -0.00002   0.00000  -0.00493  -0.00493   1.89832
   A37        1.89289  -0.00001   0.00000  -0.00219  -0.00220   1.89069
   A38        1.90941  -0.00002   0.00000  -0.00342  -0.00342   1.90599
   A39        1.88920   0.00000   0.00000   0.00133   0.00134   1.89054
    D1        1.95670   0.00033   0.00000   0.11252   0.11253   2.06923
    D2       -1.20046   0.00034   0.00000   0.12205   0.12207  -1.07839
    D3       -0.50740   0.00037   0.00000   0.09742   0.09740  -0.41000
    D4        2.61862   0.00038   0.00000   0.10696   0.10694   2.72557
    D5       -1.00818  -0.00003   0.00000  -0.04884  -0.04883  -1.05701
    D6       -3.02751   0.00002   0.00000  -0.02667  -0.02668  -3.05419
    D7        0.99252  -0.00002   0.00000  -0.03893  -0.03894   0.95358
    D8        1.45434  -0.00005   0.00000  -0.03302  -0.03300   1.42134
    D9       -0.56498  -0.00000   0.00000  -0.01086  -0.01086  -0.57584
   D10       -2.82813  -0.00005   0.00000  -0.02311  -0.02312  -2.85125
   D11       -0.47661  -0.00035   0.00000  -0.13015  -0.12979  -0.60639
   D12        3.01567  -0.00008   0.00000  -0.00184  -0.00219   3.01348
   D13        2.64958  -0.00034   0.00000  -0.12069  -0.12033   2.52925
   D14       -0.14132  -0.00007   0.00000   0.00763   0.00726  -0.13406
   D15       -0.85666   0.00010   0.00000   0.05277   0.05274  -0.80392
   D16        1.23248   0.00011   0.00000   0.05560   0.05556   1.28805
   D17       -3.05063   0.00011   0.00000   0.05750   0.05747  -2.99316
   D18        1.28029   0.00006   0.00000   0.03685   0.03689   1.31718
   D19       -2.91375   0.00006   0.00000   0.03967   0.03971  -2.87404
   D20       -0.91367   0.00007   0.00000   0.04158   0.04161  -0.87206
   D21       -3.07764   0.00007   0.00000   0.03886   0.03886  -3.03878
   D22       -0.98850   0.00007   0.00000   0.04169   0.04168  -0.94682
   D23        1.01158   0.00008   0.00000   0.04359   0.04359   1.05516
   D24        0.89735   0.00009   0.00000   0.04834   0.04833   0.94569
   D25       -1.13609   0.00008   0.00000   0.04685   0.04684  -1.08925
   D26        3.07334   0.00007   0.00000   0.04239   0.04238   3.11572
   D27        2.98880   0.00009   0.00000   0.05221   0.05221   3.04101
   D28        0.95536   0.00009   0.00000   0.05071   0.05072   1.00608
   D29       -1.11840   0.00008   0.00000   0.04626   0.04626  -1.07214
   D30       -1.19719   0.00009   0.00000   0.05182   0.05182  -1.14537
   D31        3.05256   0.00008   0.00000   0.05033   0.05033   3.10289
   D32        0.97880   0.00008   0.00000   0.04587   0.04587   1.02467
   D33        0.12669   0.00014   0.00000   0.09236   0.09231   0.21900
   D34        2.23579   0.00015   0.00000   0.09323   0.09317   2.32897
   D35       -1.95970   0.00015   0.00000   0.09437   0.09432  -1.86538
   D36        2.93144  -0.00012   0.00000  -0.03255  -0.03250   2.89894
   D37       -1.24264  -0.00011   0.00000  -0.03168  -0.03163  -1.27427
   D38        0.84506  -0.00011   0.00000  -0.03054  -0.03049   0.81457
   D39       -0.51784  -0.00028   0.00000  -0.15049  -0.15045  -0.66829
   D40        1.58456  -0.00027   0.00000  -0.14726  -0.14721   1.43736
   D41       -2.61127  -0.00027   0.00000  -0.14528  -0.14525  -2.75652
   D42        2.94330  -0.00003   0.00000  -0.03190  -0.03194   2.91136
   D43       -1.23748  -0.00001   0.00000  -0.02867  -0.02870  -1.26618
   D44        0.84987  -0.00002   0.00000  -0.02669  -0.02674   0.82313
         Item               Value     Threshold  Converged?
 Maximum Force            0.000625     0.000450     NO 
 RMS     Force            0.000128     0.000300     YES
 Maximum Displacement     0.234149     0.001800     NO 
 RMS     Displacement     0.051432     0.001200     NO 
 Predicted change in Energy=-3.532674D-04
 GradGradGradGradGradGradGradGradGradGradGradGradGradGradGradGradGradGrad

                          Input orientation:                          
 ---------------------------------------------------------------------
 Center     Atomic      Atomic             Coordinates (Angstroms)
 Number     Number       Type             X           Y           Z
 ---------------------------------------------------------------------
      1          6           0        0.011102    0.331942   -0.973115
      2          6           0       -1.322108    0.756465   -0.558890
      3          8           0       -1.671459    1.940970   -0.677616
      4          6           0        0.982388   -0.219753   -0.130960
      5          6           0        1.752729    2.167699    0.726714
      6          1           0        0.875786    2.545826    0.206779
      7          1           0        1.961184    2.772772    1.605766
      8          1           0        2.612300    2.170722    0.062210
      9          7           0        1.475425    0.787103    1.147332
     10          1           0        0.695045    0.770335    1.799752
     11          1           0        2.274641    0.371287    1.620706
     12         17           0        2.555026   -0.491241   -0.957236
     13         17           0        0.597757   -1.681003    0.874105
     14          1           0        0.439578    0.998179   -1.712352
     15          7           0       -2.206040   -0.155557   -0.039319
     16          6           0       -2.266627   -1.531301   -0.490305
     17          6           0       -3.451132    0.342158    0.504481
     18          1           0       -1.397375   -1.760596   -1.098952
     19          1           0       -2.302751   -2.223508    0.353207
     20          1           0       -3.168713   -1.679264   -1.095241
     21          1           0       -3.282424    1.278958    1.029066
     22          1           0       -4.201289    0.514528   -0.276493
     23          1           0       -3.847856   -0.394690    1.204390
 ---------------------------------------------------------------------
                    Distance matrix (angstroms):
                    1          2          3          4          5
     1  C    0.000000
     2  C    1.459196   0.000000
     3  O    2.346764   1.240642   0.000000
     4  C    1.398924   2.539061   3.465611   0.000000
     5  C    3.048391   3.619252   3.707912   2.651218   0.000000
     6  H    2.653509   2.935780   2.763415   2.788164   1.087355
     7  H    4.051061   4.419416   4.370563   3.595756   1.087336
     8  H    3.349514   4.226755   4.353242   2.899707   1.086480
     9  N    2.616813   3.276939   3.816376   1.700257   1.469648
    10  H    2.889421   3.103594   3.620508   2.188719   2.054929
    11  H    3.442828   4.223223   4.828861   2.255567   2.073333
    12  Cl   2.673842   4.092386   4.884364   1.797116   3.247974
    13  Cl   2.794340   3.417691   4.547073   1.814759   4.020969
    14  H    1.083482   2.119537   2.532984   2.068526   3.006857
    15  N    2.454658   1.372251   2.255799   3.190390   4.653620
    16  C    2.982085   2.476024   3.527886   3.522128   5.596334
    17  C    3.764367   2.415605   2.668481   4.513937   5.519253
    18  H    2.525542   2.575447   3.735537   2.995743   5.356092
    19  H    3.693693   3.267081   4.336358   3.878348   5.989084
    20  H    3.764451   3.103288   3.939832   4.504625   6.506861
    21  H    3.968990   2.576323   2.438490   4.666949   5.121918
    22  H    4.273507   2.903095   2.931839   5.237447   6.260170
    23  H    4.490109   3.288422   3.705936   5.014481   6.177423
                    6          7          8          9         10
     6  H    0.000000
     7  H    1.785150   0.000000
     8  H    1.782438   1.780164   0.000000
     9  N    2.082622   2.094995   2.093891   0.000000
    10  H    2.392195   2.377076   2.942109   1.017313   0.000000
    11  H    2.946965   2.421902   2.404348   1.017709   1.639031
    12  Cl   3.660403   4.192304   2.851070   2.688663   3.556977
    13  Cl   4.288205   4.714909   4.421916   2.633723   2.622088
    14  H    2.503708   4.058863   3.040502   3.048824   3.528746
    15  N    4.105568   5.352305   5.351475   3.981197   3.557492
    16  C    5.194579   6.386935   6.149323   4.696786   4.394700
    17  C    4.864874   6.034391   6.348579   4.988205   4.364842
    18  H    5.041574   6.256744   5.734201   4.448544   4.380219
    19  H    5.733331   6.686767   6.599368   4.895817   4.476870
    20  H    5.992046   7.309713   7.041463   5.716653   5.413884
    21  H    4.424005   5.482653   6.039687   4.784666   4.083247
    22  H    5.489664   6.827784   7.020164   5.858895   5.324501
    23  H    5.652845   6.628639   7.044113   5.453183   4.727545
                   11         12         13         14         15
    11  H    0.000000
    12  Cl   2.732829   0.000000
    13  Cl   2.753406   2.932617   0.000000
    14  H    3.856128   2.695124   3.727304   0.000000
    15  N    4.807260   4.860349   3.320031   3.336081   0.000000
    16  C    5.357175   4.954602   3.176275   3.900668   1.449044
    17  C    5.833634   6.237395   4.541289   4.525741   1.446960
    18  H    5.042337   4.153651   2.807105   3.370682   2.086363
    19  H    5.412211   5.321278   2.996430   4.708096   2.107095
    20  H    6.419598   5.847361   4.250250   4.535338   2.088874
    21  H    5.661703   6.415202   4.882744   4.631145   2.087555
    22  H    6.749634   6.864603   5.401396   4.881932   2.118086
    23  H    6.184255   6.758612   4.639737   5.369316   2.073537
                   16         17         18         19         20
    16  C    0.000000
    17  C    2.429506   0.000000
    18  H    1.085645   3.348207   0.000000
    19  H    1.091773   2.815014   1.772782   0.000000
    20  H    1.096175   2.593264   1.773208   1.773159   0.000000
    21  H    3.352296   1.086852   4.161821   3.699164   3.643719
    22  H    2.823836   1.096525   3.703318   3.390842   2.559158
    23  H    2.581504   1.090967   3.629868   2.540952   2.720233
                   21         22         23
    21  H    0.000000
    22  H    1.770071   0.000000
    23  H    1.775261   1.773304   0.000000
 Stoichiometry    C6H12Cl2N2O
 Framework group  C1[X(C6H12Cl2N2O)]
 Deg. of freedom    63
 Full point group                 C1      NOp   1
 Largest Abelian subgroup         C1      NOp   1
 Largest concise Abelian subgroup C1      NOp   1
                         Standard orientation:                         
 ---------------------------------------------------------------------
 Center     Atomic      Atomic             Coordinates (Angstroms)
 Number     Number       Type             X           Y           Z
 ---------------------------------------------------------------------
      1          6           0        0.005264    0.350856   -0.959463
      2          6           0       -1.328738    0.761607   -0.534052
      3          8           0       -1.685416    1.945622   -0.634465
      4          6           0        0.983052   -0.207119   -0.129052
      5          6           0        1.742923    2.172306    0.759708
      6          1           0        0.861754    2.552682    0.248633
      7          1           0        1.951339    2.765968    1.646515
      8          1           0        2.599829    2.189853    0.091994
      9          7           0        1.475292    0.784242    1.161599
     10          1           0        0.697607    0.753588    1.816726
     11          1           0        2.278770    0.366391    1.625879
     12         17           0        2.553960   -0.457566   -0.965206
     13         17           0        0.610875   -1.684804    0.856483
     14          1           0        0.426945    1.030082   -1.690744
     15          7           0       -2.205307   -0.162903   -0.024167
     16          6           0       -2.259699   -1.532395   -0.494554
     17          6           0       -3.451104    0.319696    0.531511
     18          1           0       -1.391545   -1.747880   -1.109777
     19          1           0       -2.288475   -2.236781    0.339101
     20          1           0       -3.163296   -1.676979   -1.098050
     21          1           0       -3.285759    1.249878    1.068790
     22          1           0       -4.205329    0.498812   -0.244008
     23          1           0       -3.840781   -0.429385    1.222336
 ---------------------------------------------------------------------
 Rotational constants (GHZ):           1.1710283           0.5841471           0.4852870
 Standard basis: def2TZVP (5D, 7F)
 There are   480 symmetry adapted cartesian basis functions of A   symmetry.
 There are   425 symmetry adapted basis functions of A   symmetry.
   425 basis functions,   693 primitive gaussians,   480 cartesian basis functions
    52 alpha electrons       52 beta electrons
       nuclear repulsion energy       881.8972673096 Hartrees.
 NAtoms=   23 NActive=   23 NUniq=   23 SFac= 1.00D+00 NAtFMM=   60 NAOKFM=F Big=F
 Integral buffers will be    131072 words long.
 Raffenetti 2 integral format.
 Two-electron integral symmetry is turned on.
 Nuclear repulsion after empirical dispersion term =      881.8812402815 Hartrees.
 ------------------------------------------------------------------------------
 Polarizable Continuum Model (PCM)
 =================================
 Model                : PCM.
 Atomic radii         : UFF (Universal Force Field).
 Polarization charges : Total charges.
 Charge compensation  : None.
 Solution method      : Matrix inversion.
 Cavity type          : Scaled VdW (van der Waals Surface) (Alpha=1.100).
 Cavity algorithm     : GePol (No added spheres)
                        Default sphere list used, NSphG=   23.
                        Lebedev-Laikov grids with approx.  5.0 points / Ang**2.
                        Smoothing algorithm: York/Karplus (Gamma=1.0000).
                        Polarization charges: spherical gaussians, with
                                              point-specific exponents (IZeta= 3).
                        Self-potential: point-specific (ISelfS= 7).
                        Self-field    : sphere-specific E.n sum rule (ISelfD= 2).
 1st derivatives      : Analytical E(r).r(x)/FMM algorithm (CHGder, D1EAlg=3).
                        Cavity 1st derivative terms included.
 Solvent              : Water, Eps=  78.355300 Eps(inf)=   1.777849
 ------------------------------------------------------------------------------
 One-electron integrals computed using PRISM.
   1 Symmetry operations used in ECPInt.
 ECPInt:  NShTT=   15051 NPrTT=   47277 LenC2=   14255 LenP2D=   33445.
 LDataN:  DoStor=T MaxTD1= 6 Len=  172
 NBasis=   425 RedAO= T EigKep=  1.39D-04  NBF=   425
 NBsUse=   425 1.00D-06 EigRej= -1.00D+00 NBFU=   425
 Initial guess from the checkpoint file:  "/beegfs/scratch/user/q/tla25/Gau-118734.chk"
 B after Tr=     0.000000   -0.000000   -0.000000
         Rot=    0.999985   -0.003930   -0.001233   -0.003728 Ang=  -0.64 deg.
 ExpMin= 9.52D-02 ExpMax= 6.95D+04 ExpMxC= 2.37D+03 IAcc=2 IRadAn=         4 AccDes= 0.00D+00
 Harris functional with IExCor= 4639 and IRadAn=       4 diagonalized for initial guess.
 HarFok:  IExCor= 4639 AccDes= 0.00D+00 IRadAn=         4 IDoV= 1 UseB2=F ITyADJ=14
 ICtDFT=  3500011 ScaDFX=  1.000000  1.000000  1.000000  1.000000
 FoFCou: FMM=F IPFlag=           0 FMFlag=      100000 FMFlg1=           0
         NFxFlg=           0 DoJE=T BraDBF=F KetDBF=T FulRan=T
         wScrn=  0.000000 ICntrl=       500 IOpCl=  0 I1Cent=   200000004 NGrid=           0
         NMat0=    1 NMatS0=      1 NMatT0=    0 NMatD0=    1 NMtDS0=    0 NMtDT0=    0
 Petite list used in FoFCou.
 Requested convergence on RMS density matrix=1.00D-08 within 128 cycles.
 Requested convergence on MAX density matrix=1.00D-06.
 Requested convergence on             energy=1.00D-06.
 No special actions if energy rises.
 Inv3:  Mode=1 IEnd=     9187500.
 Iteration    1 A*A^-1 deviation from unit magnitude is 4.00D-15 for   1733.
 Iteration    1 A*A^-1 deviation from orthogonality  is 1.68D-15 for   1735   1419.
 Iteration    1 A^-1*A deviation from unit magnitude is 4.44D-15 for   1733.
 Iteration    1 A^-1*A deviation from orthogonality  is 1.62D-15 for   1252    360.
 Error on total polarization charges =  0.01360
 SCF Done:  E(RwB97XD) =  -1340.98383979     A.U. after   12 cycles
            NFock= 12  Conv=0.90D-08     -V/T= 2.0025
   1 Symmetry operations used in ECPInt.
 ECPInt:  NShTT=   15051 NPrTT=   47277 LenC2=   14255 LenP2D=   33445.
 LDataN:  DoStor=T MaxTD1= 7 Len=  274
 D1PCM: PCM CHGder 1st derivatives, ID1Alg=3 FixD1E=F DoIter=F DoCFld=F I1PDM=0.
 Calling FoFJK, ICntrl=      2127 FMM=F ISym2X=0 I1Cent= 0 IOpClX= 0 NMat=1 NMatS=1 NMatT=0.
 ***** Axes restored to original set *****
 -------------------------------------------------------------------
 Center     Atomic                   Forces (Hartrees/Bohr)
 Number     Number              X              Y              Z
 -------------------------------------------------------------------
      1        6           0.000245318    0.000191065    0.000014396
      2        6           0.000079463    0.000343418   -0.000317425
      3        8           0.000214621   -0.000058137    0.000042653
      4        6           0.000065999    0.000204627   -0.000303818
      5        6          -0.000033309    0.000050315   -0.000128146
      6        1          -0.000027230    0.000004403    0.000002833
      7        1           0.000017352    0.000004993   -0.000015937
      8        1           0.000060178   -0.000079451   -0.000006634
      9        7          -0.000065496    0.000046903    0.000152751
     10        1           0.000005712   -0.000007769    0.000024641
     11        1          -0.000050683    0.000040875   -0.000022882
     12       17          -0.000017128   -0.000004804   -0.000023547
     13       17          -0.000160640   -0.000287025    0.000111383
     14        1          -0.000037998   -0.000058758    0.000001241
     15        7          -0.000128818   -0.000205005    0.000573728
     16        6           0.000032370   -0.000156115   -0.000287898
     17        6          -0.000291720    0.000097479    0.000062273
     18        1           0.000006605   -0.000054154    0.000005468
     19        1          -0.000004929    0.000025252    0.000018638
     20        1           0.000042642   -0.000030480   -0.000026494
     21        1          -0.000046207   -0.000010637    0.000038199
     22        1           0.000108891   -0.000029658    0.000041968
     23        1          -0.000014993   -0.000027336    0.000042608
 -------------------------------------------------------------------
 Cartesian Forces:  Max     0.000573728 RMS     0.000138719

 GradGradGradGradGradGradGradGradGradGradGradGradGradGradGradGradGradGrad
 Berny optimization.
 FormGI is forming the generalized inverse of G from B-inverse, IUseBI=4.
 Internal  Forces:  Max     0.000610626 RMS     0.000138690
 Search for a saddle point.
 Step number   2 out of a maximum of   70
 All quantities printed in internal units (Hartrees-Bohrs-Radians)
 Swapping is turned off.
 Update second derivatives using D2CorX and points    1    2
 ITU=  0  0
     Eigenvalues ---   -0.00891   0.00081   0.00185   0.00244   0.00327
     Eigenvalues ---    0.00428   0.00615   0.01074   0.01281   0.03250
     Eigenvalues ---    0.03402   0.04132   0.04650   0.04777   0.05114
     Eigenvalues ---    0.05947   0.06087   0.06144   0.06175   0.06295
     Eigenvalues ---    0.06481   0.08439   0.09397   0.10956   0.12772
     Eigenvalues ---    0.13127   0.13514   0.13643   0.15531   0.16150
     Eigenvalues ---    0.16772   0.16849   0.17340   0.17616   0.18079
     Eigenvalues ---    0.18423   0.19534   0.21003   0.22801   0.23441
     Eigenvalues ---    0.23556   0.27559   0.29395   0.31768   0.32622
     Eigenvalues ---    0.32728   0.33534   0.33956   0.34178   0.35203
     Eigenvalues ---    0.35379   0.35434   0.35623   0.36036   0.36110
     Eigenvalues ---    0.38334   0.39209   0.43519   0.44213   0.44311
     Eigenvalues ---    0.46536   0.53307   0.73320
 Eigenvectors required to have negative eigenvalues:
                          R6        D7        D5        D10       R8
   1                   -0.63553   0.36853   0.31173   0.26389   0.22615
                          D8        D6        D3        D4        A10
   1                    0.20709   0.16612   0.16101   0.16001   0.11821
 RFO step:  Lambda0=4.815999788D-07 Lambda=-1.81659987D-05.
 Linear search not attempted -- option 19 set.
 Iteration  1 RMS(Cart)=  0.01110312 RMS(Int)=  0.00006776
 Iteration  2 RMS(Cart)=  0.00008806 RMS(Int)=  0.00000904
 Iteration  3 RMS(Cart)=  0.00000000 RMS(Int)=  0.00000904
 Variable       Old X    -DE/DX   Delta X   Delta X   Delta X     New X
                                 (Linear)    (Quad)   (Total)
    R1        2.75748   0.00000   0.00000   0.00018   0.00018   2.75766
    R2        2.64358  -0.00024   0.00000  -0.00104  -0.00104   2.64255
[...]
 075452,-0.00002780,0.00006395,-0.00003919,0.00000971,-0.00000178,0.000
 00069,-0.00044705,0.00009877,0.00175674,0.00019864,0.00002835,0.000183
 57,-0.00027079,-0.00010265,0.00016059,-0.00356080,0.00058030,-0.000203
 00,0.00122625,-0.00670374,0.00890160,0.06519886,0.14612497,0.08628166,
 0.12809143,-0.16496428,-0.00076595,0.00773762,-0.00357415,-0.00170817,
 -0.00179647,0.00016498,0.00431433,0.01902062,-0.02334734,-0.00024814,-
 0.00021389,0.00007127,0.00008167,-0.00079518,-0.00075386,0.00014066,-0
 .00018660,0.00029706,-0.00013453,-0.00003910,-0.00009640,-0.00010434,0
 .00071066,0.00225657,0.00026477,0.00019957,0.00035623,-0.00019551,-0.0
 0010583,0.00013060,-0.00192801,-0.00145424,0.00082157,-0.00134459,-0.0
 0391198,0.00524303,-0.08691522,-0.14782804,0.18277369,-0.02906790,-0.0
 1461588,0.01912503,-0.19525023,-0.07276230,0.08443623,0.01822790,-0.01
 963138,-0.00000827,0.00773920,-0.00575584,0.00930322,0.00013809,0.0006
 1357,-0.00050503,0.00018854,0.00032882,0.00026262,-0.00006880,-0.00017
 883,-0.00000537,-0.00000722,0.00001025,0.00005290,-0.00278116,-0.00124
 662,-0.00437318,-0.00022687,0.00006544,0.00025480,0.00019029,-0.000587
 59,-0.00045348,-0.00223267,0.00060575,-0.00016226,-0.00048178,0.001785
 74,-0.00198150,-0.00502617,0.00205014,0.00199376,0.55365640,-0.0083247
 6,0.01420102,0.00145857,-0.06014238,-0.16426337,0.03192466,-0.02754019
 ,-0.09653305,0.02873177,0.00607661,-0.00483730,0.00685598,0.00001911,0
 .00032063,-0.00021660,0.00054773,0.00030206,0.00026773,-0.00007932,-0.
 00007147,-0.00002662,-0.00010098,0.00002817,-0.00001708,-0.00227548,-0
 .00060171,-0.00365647,-0.00033889,-0.00024076,0.00003563,0.00009892,-0
 .00047045,-0.00045452,-0.00096625,-0.00060763,-0.00012520,0.00034172,0
 .00096706,-0.00161996,0.00290546,0.00140664,0.00066775,0.06446978,0.65
 432122,0.02248962,0.00004267,0.00034477,0.05873915,0.01169700,-0.09065
 976,0.00445970,0.03631982,0.01847807,-0.00413385,0.00671366,-0.0084615
 8,0.00005725,-0.00037941,0.00043356,-0.00039095,-0.00032308,-0.0001922
 6,0.00007509,0.00008650,0.00002732,0.00006694,-0.00004956,-0.00000124,
 0.00279633,0.00064080,0.00354574,0.00052871,0.00034074,0.00002587,0.00
 004356,0.00061391,0.00053660,0.00106679,-0.00049669,0.00023695,-0.0013
 2386,-0.00101899,0.00259320,0.00225776,-0.00033094,-0.00039262,-0.1915
 5007,0.04630047,0.22954474,-0.00449205,-0.00114575,0.00127633,0.006183
 41,-0.00975225,-0.01756731,0.00074598,-0.00474973,0.00462206,0.0007527
 6,-0.00170076,0.00234899,0.00007348,0.00010180,-0.00006354,0.00001199,
 0.00003920,0.00002919,-0.00001217,-0.00002558,0.00000085,-0.00000349,0
 .00000282,0.00001057,-0.00044855,-0.00032732,-0.00095383,-0.00001633,-
 0.00003414,0.00002750,0.00001989,-0.00004156,-0.00007374,-0.00016411,-
 0.00008191,0.00001012,-0.00321090,-0.00008436,-0.00199651,0.00009608,0
 .00003148,-0.00009272,-0.09732896,-0.02528214,0.01613489,0.60669930,0.
 00398236,-0.00455511,-0.00155543,-0.01786361,-0.03903749,0.00344448,-0
 .00153213,0.00886840,-0.00086305,-0.00242605,0.00224454,-0.00287778,-0
 .00003273,-0.00026084,0.00012335,-0.00013493,-0.00012901,-0.00008185,0
 .00003155,0.00005425,0.00000850,0.00001992,0.00000625,-0.00001507,0.00
 090654,0.00020001,0.00162450,-0.00007456,-0.00001130,-0.00020012,-0.00
 007311,0.00027600,0.00016484,0.00042484,-0.00018335,0.00015111,0.00066
 163,-0.00082281,0.00115612,0.00079167,-0.00044801,-0.00061715,0.002186
 26,-0.21138578,-0.04619438,-0.01300095,0.50722373,0.00024776,0.0013842
 1,0.00019171,-0.00804656,0.01503723,-0.00184833,0.00581536,0.00599717,
 0.00124619,-0.00060876,0.00096935,-0.00019236,0.00001688,-0.00008092,0
 .00002241,-0.00005626,-0.00004029,-0.00003974,0.00000810,0.00000053,0.
 00001009,0.00000830,-0.00000001,0.00000287,0.00029473,-0.00015819,0.00
 022992,-0.00006987,-0.00001862,-0.00006853,0.00003135,0.00015024,0.000
 04401,0.00024021,-0.00002637,-0.00008983,-0.00298012,-0.00064936,-0.00
 180544,0.00047374,-0.00001787,-0.00004680,0.01910364,-0.05936123,-0.07
 879943,-0.03674668,-0.03145733,0.56677227,0.00465686,-0.00314641,0.002
 31237,-0.03902420,-0.00575423,0.01586605,0.00088477,0.00975016,-0.0015
 9352,-0.00180286,0.00086599,-0.00190968,-0.00002679,-0.00015594,0.0001
 4911,-0.00013243,-0.00010372,-0.00007109,0.00003018,0.00005253,0.00000
 531,0.00002831,0.00000050,-0.00000791,0.00065933,0.00035247,0.00101480
 ,-0.00008958,-0.00005044,-0.00017489,-0.00006608,0.00011326,0.00007231
 ,0.00051728,0.00003374,-0.00008601,0.00027141,-0.00019858,0.00031507,-
 0.00047858,0.00007538,-0.00011058,-0.19403550,0.04336751,0.05748864,-0
 .00056008,0.00380187,0.00073364,0.51322662,-0.00485189,-0.00167806,0.0
 0128635,-0.01497785,0.01932902,0.00671347,-0.00262453,-0.00382917,0.00
 167983,0.00202127,-0.00146122,0.00300813,0.00004924,0.00015842,-0.0001
 2088,0.00004237,0.00008695,0.00006971,-0.00002587,-0.00003996,-0.00000
 988,-0.00000114,0.00000305,0.00001616,-0.00065045,-0.00029776,-0.00108
 526,0.00000198,0.00001531,0.00010220,0.00002576,-0.00013733,-0.0001060
 2,-0.00064260,0.00017109,-0.00003628,-0.00002911,0.00059366,-0.0006909
 2,-0.00125598,0.00003543,0.00011648,0.03216152,-0.12241055,-0.02077871
 ,0.03233670,-0.01549120,-0.01598308,0.03940099,0.61285108,0.00168431,0
 .00076346,0.00395197,0.01991723,0.00703178,-0.01048951,0.00238716,-0.0
 0808843,-0.00554570,0.00171161,0.00010889,-0.00003994,0.00000096,0.000
 06237,-0.00009285,0.00008176,0.00005780,0.00004705,-0.00001381,-0.0000
 4053,0.00000872,-0.00001821,-0.00000220,-0.00000316,-0.00042508,-0.000
 25296,-0.00045979,0.00007349,0.00005481,0.00013646,0.00002143,-0.00007
 319,-0.00003749,-0.00030194,-0.00011186,-0.00004093,-0.00041092,-0.000
 03091,0.00017081,-0.00024580,0.00066428,0.00090236,0.04239615,-0.01844
 175,-0.08419483,0.00978211,-0.01075720,-0.00965304,0.01449245,0.000156
 56,0.56096359,-0.00105421,-0.00113941,-0.00052336,-0.00017099,-0.00182
 054,0.00011586,-0.00004164,0.00053201,-0.00042464,-0.00080533,-0.00044
 292,-0.00060692,0.00000377,-0.00004651,0.00001651,-0.00001378,-0.00003
 196,-0.00001496,0.00000693,0.00000119,0.00000615,0.00000142,-0.0000007
 8,-0.00000079,0.00014202,-0.00003422,0.00013383,-0.00000702,0.00000319
 ,-0.00002027,-0.00000632,0.00010381,0.00001574,0.00001660,-0.00001658,
 0.00004095,-0.00406640,0.00002141,-0.00290287,0.00013306,0.00024060,0.
 00011124,0.00210707,0.00076613,-0.00171759,-0.23273056,0.04923273,0.12
 773446,0.00119919,0.00006628,0.00078681,0.25175975,0.00024275,0.000333
 20,0.00104219,0.00290253,0.00093420,-0.00182284,-0.00029509,-0.0003006
 0,-0.00007744,-0.00182829,0.00023978,-0.00218182,-0.00002577,-0.000085
 87,0.00008124,0.00001069,-0.00004614,-0.00003316,0.00001215,0.00001268
 ,0.00000650,-0.00000323,-0.00000154,-0.00001098,0.00045157,0.00017374,
 0.00067628,0.00002687,-0.00000132,-0.00003166,0.00000867,0.00008860,0.
 00008069,0.00031408,0.00003368,-0.00000865,-0.00023489,-0.00017294,0.0
 0046791,0.00018176,0.00028865,0.00014149,0.02948770,-0.01093195,-0.018
 56286,0.03864119,-0.05950003,-0.02826041,-0.00261766,-0.00537561,-0.00
 165713,-0.05065139,0.06878787,0.00058573,0.00111051,0.00005522,0.00173
 550,0.00126097,0.00010664,-0.00025527,-0.00040814,0.00006107,-0.001076
 58,-0.00115820,-0.00007875,-0.00000164,0.00000535,0.00011249,0.0000163
 8,-0.00000980,-0.00001223,0.00001350,0.00003203,-0.00000578,-0.0000018
 1,0.00000089,-0.00001090,0.00007292,0.00035273,-0.00000775,0.00001413,
 -0.00007430,-0.00005192,-0.00003948,-0.00007923,-0.00002871,0.00021548
 ,0.00007153,-0.00009317,-0.00130170,0.00061244,-0.00110143,-0.00000138
 ,0.00020029,0.00009910,0.00885823,-0.00377901,-0.00701190,0.12267715,-
 0.03422070,-0.13437520,-0.00127426,-0.00131874,-0.00037863,-0.13467840
 ,0.03856888,0.14231637,-0.00000498,-0.00032669,-0.00060634,0.00023333,
 -0.00083184,0.00042992,-0.00011799,-0.00069498,-0.00011041,0.00022785,
 -0.00083739,0.00097432,0.00001338,0.00000962,0.00004898,0.00000671,0.0
 0001498,0.00000372,0.00000043,0.00001701,-0.00000900,0.00000170,0.0000
 0326,-0.00000350,-0.00005901,0.00017053,-0.00016341,0.00001408,-0.0000
 3196,-0.00000563,-0.00003539,-0.00005056,-0.00003990,-0.00013661,0.000
 03806,-0.00004045,-0.00023646,0.00014669,-0.00017451,-0.00012079,-0.00
 002624,-0.00001697,-0.00039411,-0.00186844,0.00312907,-0.04891100,-0.0
 0455597,0.00686837,0.00052895,0.00048023,-0.00073568,0.00063836,-0.016
 21990,0.01950180,0.04712952,-0.00108134,0.00060167,0.00009309,0.008483
 64,0.00044216,-0.00078048,-0.00199152,-0.00433414,0.00004018,0.0008213
 1,-0.00075127,0.00120363,0.00001664,0.00005131,-0.00001074,0.00004783,
 0.00003981,0.00002976,-0.00001060,-0.00000486,-0.00000692,-0.00000633,
 0.00000074,0.00000108,-0.00022925,-0.00004023,-0.00046856,0.00001920,-
 0.00001156,0.00004462,-0.00000104,-0.00006418,-0.00005523,-0.00015745,
 0.00006407,-0.00007880,0.00024655,0.00049746,-0.00038944,-0.00016709,0
 .00013329,0.00010472,-0.00889202,-0.03289782,0.01837855,-0.00484524,-0
 .14233080,0.12416376,-0.00226571,0.00042966,0.00167448,-0.00049507,0.0
 0528026,-0.00541441,0.00875406,0.16946502,0.00003683,0.00024327,0.0004
 1440,0.00038756,-0.00256905,0.00035234,-0.00083731,-0.00011217,-0.0000
 2002,-0.00038923,0.00037427,-0.00068861,-0.00000890,-0.00001803,-0.000
 02916,-0.00000113,-0.00001471,-0.00000306,0.00000400,-0.00001045,0.000
 00743,-0.00000269,0.00000141,-0.00000132,0.00004725,-0.00010687,0.0001
 4322,-0.00001633,0.00001056,-0.00000975,0.00002050,0.00003570,0.000038
 68,0.00002507,-0.00001719,0.00005569,-0.00079150,-0.00065209,0.0001060
 8,0.00006565,0.00002617,0.00001033,0.00031160,-0.00981019,0.01446659,0
 .00978101,0.12936187,-0.21543454,-0.00065101,-0.00033663,0.00097437,-0
 .00173252,0.00970009,-0.01229767,-0.00708597,-0.13665846,0.22591861,-0
 .00218788,-0.00053190,-0.00030027,0.00195401,0.00233510,-0.00153552,-0
 .00025523,-0.00089291,-0.00019250,0.00176057,-0.00011658,0.00152993,0.
 00002574,0.00009414,-0.00015334,0.00000930,0.00004622,0.00003526,-0.00
 001567,-0.00004458,0.00000532,-0.00000541,0.00000105,0.00001403,-0.000
 47106,-0.00042248,-0.00069882,-0.00002129,0.00004145,0.00007365,0.0000
 3978,-0.00002790,-0.00004900,-0.00035706,-0.00005128,0.00003952,-0.000
 53860,-0.00011184,-0.00048882,-0.00006876,0.00001646,0.00004336,-0.000
 40972,-0.00584809,-0.00005614,-0.22228018,-0.01757621,-0.11368582,0.00
 184331,0.00019287,0.00292311,-0.01722958,-0.00188398,-0.01562482,0.001
 13307,0.00061183,0.00124785,0.23632557,-0.00146463,0.00100864,0.000511
 09,0.00392557,0.00456529,-0.00762825,0.00051130,-0.00312787,0.00161546
 ,0.00077024,-0.00121656,0.00151821,0.00002596,0.00007629,-0.00000248,0
 .00003581,0.00004203,0.00002614,-0.00000754,-0.00000596,-0.00000536,-0
 .00000372,-0.00000058,0.00000300,-0.00027992,-0.00000387,-0.00061944,0
 .00002935,-0.00002869,0.00004408,-0.00000617,-0.00009586,-0.00007250,-
 0.00018541,0.00002732,-0.00007811,0.00081902,0.00059467,-0.00007786,-0
 .00010658,0.00021841,0.00020307,-0.03286028,-0.02172485,-0.02065216,-0
 .01476022,-0.04894927,-0.00984046,-0.00285353,0.00164050,0.00030197,0.
 00421861,0.00070605,0.00468216,0.01634219,0.00303440,0.00978895,0.0248
 6077,0.06332254,-0.00026107,0.00081286,0.00033108,0.00260446,0.0034232
 9,-0.00326590,0.00005732,-0.00228504,0.00018294,0.00019852,-0.00017248
 ,0.00008851,0.00000936,0.00004089,-0.00003708,0.00003262,0.00002094,0.
 00001301,-0.00000405,-0.00002038,0.00000500,-0.00000648,-0.00000102,0.
 00000112,-0.00019598,-0.00010363,-0.00021291,0.00002114,0.00000474,0.0
 0004529,0.00001220,-0.00004282,-0.00001773,-0.00010190,0.00001165,0.00
 000955,-0.00010358,-0.00015565,0.00018180,-0.00005395,0.00012132,0.000
 14326,-0.00928870,-0.01225992,-0.00211321,-0.11270409,-0.00979002,-0.1
 2751880,-0.00053586,0.00016398,0.00085632,0.01376591,0.00247190,0.0123
 0499,-0.02202236,-0.00122823,-0.01355590,0.12812988,0.01909141,0.13325
 458,-0.00031310,0.00016416,-0.00049374,0.00144858,0.00295584,0.0001977
 8,-0.00058189,-0.00172986,-0.00013228,0.00005005,-0.00003112,0.0001020
 6,-0.00000221,0.00001530,-0.00002122,0.00000721,0.00000378,0.00000014,
 0.00000007,-0.00000487,0.00000103,0.00000048,-0.00000056,0.00000122,-0
 .00004761,-0.00003983,-0.00007710,-0.00000801,0.00000633,-0.00000144,0
 .00000661,-0.00000801,-0.00000667,-0.00002598,0.00000531,0.00000925,-0
 .00001563,-0.00003335,-0.00000576,0.00007374,0.00002196,0.00002382,0.0
 0335891,0.02994481,0.01701033,-0.00457870,-0.00018031,0.00256739,-0.05
 837949,-0.04621684,-0.02790615,-0.00006733,0.00155460,0.00060588,0.000
 02962,-0.00003825,-0.00022299,0.00010863,-0.00000661,0.00015562,0.0634
 5708,0.00033728,-0.00004003,-0.00013809,-0.00134552,-0.00227284,0.0015
 4842,-0.00198956,0.00083041,0.00138876,-0.00036402,0.00004741,-0.00032
 974,-0.00000671,-0.00001746,0.00002097,0.00000350,-0.00000661,-0.00000
 909,0.00000353,0.00000726,-0.00000021,-0.00000016,0.00000053,-0.000002
 48,0.00008824,0.00006084,0.00012882,0.00000387,-0.00001111,-0.00001412
 ,-0.00000706,0.00001061,0.00001084,0.00006988,0.00000546,0.00000063,0.
 00003478,-0.00001016,0.00005428,0.00002499,0.00007753,-0.00000901,0.00
 216448,-0.01138179,-0.00534424,0.00265817,0.00092182,-0.00165082,-0.03
 792027,-0.25029382,-0.11788544,-0.00011642,-0.00077152,-0.00029672,-0.
 00010028,0.00017814,0.00002375,-0.00019520,0.00014192,0.00013762,0.039
 24124,0.27181493,-0.00009584,0.00023254,0.00003356,0.00005429,-0.00392
 761,0.00092163,-0.00162143,0.00209270,0.00070767,0.00004824,-0.0000404
 8,0.00009401,0.00000630,-0.00001173,0.00001204,0.00000976,0.00000943,0
 .00000892,-0.00000498,0.00000131,-0.00000237,-0.00000199,0.00000247,-0
 .00000211,-0.00000372,0.00001236,-0.00000367,0.00000236,-0.00001031,0.
 00000105,-0.00000369,-0.00000295,-0.00000531,-0.00005201,0.00000004,-0
 .00000182,0.00005637,0.00003815,-0.00001988,-0.00000972,-0.00000978,-0
 .00003441,-0.00000652,-0.01039105,-0.00702158,0.00209815,0.00070612,-0
 .00093609,-0.02203992,-0.11490106,-0.11238376,0.00010167,-0.00068493,0
 .00014505,-0.00004610,-0.00018096,0.00018216,0.00003575,0.00035043,0.0
 0017378,0.02317175,0.12908371,0.11669869,-0.00108946,0.00024878,0.0011
 1351,0.00312267,0.00885333,-0.00364603,0.00109644,-0.00377714,-0.00071
 344,0.00139209,-0.00053313,0.00112683,0.00002040,0.00010508,-0.0001002
 0,0.00004162,0.00005279,0.00003928,-0.00001252,-0.00003589,0.00000318,
 -0.00000768,-0.00000155,0.00000785,-0.00045258,-0.00023108,-0.00066107
 ,0.00003290,0.00002603,0.00009899,0.00002464,-0.00008956,-0.00005919,-
 0.00034553,0.00000584,-0.00001082,-0.00017175,0.00016912,-0.00018269,-
 0.00033748,0.00026546,0.00034589,-0.03686152,0.00677578,-0.01030772,-0
 .00048274,-0.00275042,-0.00135696,-0.15111588,0.02376334,-0.12059160,0
 .00019140,0.00001470,0.00022010,0.00010695,0.00051921,0.00001056,0.000
 61979,0.00070456,0.00031178,-0.00265003,0.00037870,-0.00439747,0.17843
 874,0.00020178,-0.00009593,-0.00010591,-0.00162648,-0.00143681,0.00070
 392,0.00095852,0.00163227,-0.00044988,-0.00031713,0.00006662,-0.000217
 38,-0.00000236,-0.00001552,0.00001735,-0.00002348,-0.00001771,-0.00001
 264,0.00000572,0.00000617,0.00000224,0.00000339,-0.00000017,-0.0000002
 2,0.00008409,0.00004645,0.00011437,-0.00000811,-0.00000860,-0.00002425
 ,-0.00000847,0.00001398,0.00000857,0.00009690,-0.00000305,-0.00000468,
 0.00010076,-0.00006137,0.00005679,0.00004422,-0.00003307,-0.00004860,0
 .01296709,-0.00250744,0.00430640,0.00152330,0.00198501,0.00185176,0.02
 367795,-0.05554867,0.02805450,-0.00022499,0.00004906,-0.00018992,-0.00
 027280,-0.00001734,0.00004940,-0.00081519,-0.00001830,-0.00032795,-0.0
 1816652,0.00531578,-0.02029407,-0.03295546,0.05353153,-0.00055317,-0.0
 0007554,-0.00080413,0.00156808,0.00036376,0.00033288,-0.00010946,-0.00
 038865,0.00036384,-0.00008502,-0.00014641,0.00009364,-0.00000738,0.000
 00217,-0.00000533,0.00001586,0.00000761,-0.00000107,-0.00000002,0.0000
 0222,-0.00000209,-0.00000406,0.00000236,-0.00000150,-0.00000673,0.0000
 0926,-0.00001164,0.00000067,-0.00000594,-0.00000180,-0.00000331,-0.000
 00124,-0.00000178,0.00000126,0.00001909,0.00001125,0.00010431,0.000006
 71,-0.00001281,0.00007401,0.00000011,-0.00006643,0.01135281,-0.0039560
 8,0.01672330,0.00131267,0.00121490,0.00162034,-0.12176378,0.02735625,-
 0.18902153,-0.00003491,0.00015789,0.00006112,-0.00007627,-0.00000574,-
 0.00045425,-0.00113704,0.00082559,-0.00036500,-0.00888607,0.00334213,-
 0.01092340,0.13114954,-0.03056109,0.19712737,-0.00181297,-0.00033852,0
 .00003232,-0.00011165,0.00544805,0.00242671,0.00022258,-0.00074649,0.0
 0007619,0.00078099,-0.00057712,0.00121504,0.00002055,0.00006862,-0.000
 05605,0.00002061,0.00003538,0.00002577,-0.00001007,-0.00001700,-0.0000
 0285,-0.00000047,0.00000140,0.00000751,-0.00027435,-0.00011925,-0.0004
 5454,0.00000111,0.00000055,0.00004269,0.00001141,-0.00005867,-0.000044
 28,-0.00022944,0.00006108,-0.00000968,-0.00000490,0.00022789,-0.000307
 29,-0.00042503,-0.00003346,-0.00003642,-0.02143381,-0.02254664,0.02313
 635,0.00063694,-0.00183838,-0.00059289,-0.07813474,-0.05926629,0.05439
 062,-0.00000640,-0.00008906,-0.00026147,-0.00004763,0.00066064,-0.0001
 9832,0.00002068,0.00029121,-0.00002079,-0.00187099,-0.00296346,0.00269
 873,0.00843953,0.01475729,-0.01291198,0.09420804,0.00054812,0.00057616
 ,0.00031958,0.00229488,-0.00345966,-0.00058654,-0.00273116,0.00063757,
 0.00133897,0.00012444,0.00017960,-0.00015701,0.00000796,-0.00001154,0.
 00001030,0.00001709,0.00000908,0.00000552,-0.00000470,-0.00000207,-0.0
 0000127,-0.00000314,0.00000031,-0.00000234,0.00000554,-0.00000661,0.00
 003709,0.00001612,0.00000451,0.00002058,0.00000461,0.00000318,0.000004
 20,-0.00006250,-0.00003054,0.00000612,-0.00004908,-0.00005225,0.000036
 35,0.00005619,0.00005493,0.00001267,0.00763420,0.00931909,-0.01130953,
 0.00049724,0.00132502,-0.00200929,-0.06642584,-0.17875080,0.11841071,-
 0.00016517,0.00025976,0.00005139,-0.00015959,0.00023423,0.00069041,0.0
 0031825,-0.00020623,0.00008653,-0.00745720,-0.01460732,0.01792570,-0.0
 0150849,-0.00288288,0.00183066,0.06704223,0.18740647,0.00106904,-0.000
 12569,0.00004393,-0.00131354,-0.00380193,-0.00047952,-0.00076121,0.000
 64596,0.00095423,-0.00041715,0.00033701,-0.00069887,-0.00001189,-0.000
 04912,0.00003478,-0.00000853,-0.00001583,-0.00001521,0.00000419,0.0000
 1230,-0.00000042,0.00000039,0.00000058,-0.00000525,0.00018390,0.000086
 52,0.00031624,0.00000096,-0.00000354,-0.00002439,-0.00001147,0.0000388
 6,0.00002904,0.00011733,-0.00002494,0.00000276,0.00004215,-0.00013027,
 0.00015376,0.00016256,-0.00000216,0.00000625,0.01088341,0.00787312,-0.
 00810832,0.00008682,0.00067428,0.00066832,0.05776875,0.11469834,-0.155
 67049,-0.00017190,-0.00006320,0.00019198,0.00018032,-0.00045590,-0.000
 17564,-0.00015559,0.00001505,-0.00050467,-0.00609285,-0.01005997,0.012
 35585,0.00759969,0.01707130,-0.01466099,-0.06915539,-0.12672079,0.1655
 8664\\0.00000771,-0.00000670,-0.00000126,-0.00000177,-0.00000495,-0.00
 000249,0.00000233,-0.00000646,-0.00000811,-0.00000325,-0.00001175,-0.0
 0000060,-0.00000383,0.00000460,0.00000006,0.00000053,0.00000189,-0.000
 00263,-0.00000339,0.00000551,-0.00000085,0.00000102,-0.00000281,0.0000
 0329,-0.00000144,0.00000728,0.00001507,-0.00000615,0.00000673,0.000003
 48,-0.00000658,0.00000754,0.00001076,0.00000361,-0.00000363,0.00001508
 ,0.00000075,0.00000542,0.00001294,0.00000772,-0.00000416,0.00000273,0.
 00000065,0.00000496,-0.00001155,0.00000201,-0.00000365,0.00000293,-0.0
 0000198,0.00000069,-0.00001024,0.00000133,-0.00000592,0.00000504,0.000
 00013,0.00000096,0.00000297,0.00000453,-0.00000345,-0.00000164,-0.0000
 0265,0.00000481,-0.00001314,0.00000288,-0.00000164,-0.00001385,-0.0000
 0414,0.00000473,-0.00000798\\\@


 WERE I TO AWAIT PERFECTION, MY BOOK WOULD NEVER BE FINISHED.
                                    -- HISTORY OF CHINESE WRITING

                                       TAI T'UNG, 13TH CENTURY
 Job cpu time:       0 days  6 hours 46 minutes 14.6 seconds.
 Elapsed time:       0 days  0 hours 25 minutes 28.3 seconds.
 File lengths (MBytes):  RWF=    468 Int=      0 D2E=      0 Chk=     25 Scr=      1
 Normal termination of Gaussian 16 at Sun Feb 28 14:39:04 2021.
