 Entering Gaussian System, Link 0=g16
 Initial command:
 /apps/gaussian/16/A.03/g16/l1.exe "/beegfs/scratch/user/q/tla25/Gau-31463.inp" -scrdir="/beegfs/scratch/user/q/tla25/"
 Entering Link 1 = /apps/gaussian/16/A.03/g16/l1.exe PID=     31464.
  
 Copyright (c) 1988,1990,1992,1993,1995,1998,2003,2009,2016,
            Gaussian, Inc.  All Rights Reserved.
  
 This is part of the Gaussian(R) 16 program.  It is based on
 the Gaussian(R) 09 system (copyright 2009, Gaussian, Inc.),
 the Gaussian(R) 03 system (copyright 2003, Gaussian, Inc.),
 the Gaussian(R) 98 system (copyright 1998, Gaussian, Inc.),
 the Gaussian(R) 94 system (copyright 1995, Gaussian, Inc.),
 the Gaussian 92(TM) system (copyright 1992, Gaussian, Inc.),
 the Gaussian 90(TM) system (copyright 1990, Gaussian, Inc.),
 the Gaussian 88(TM) system (copyright 1988, Gaussian, Inc.),
 the Gaussian 86(TM) system (copyright 1986, Carnegie Mellon
 University), and the Gaussian 82(TM) system (copyright 1983,
 Carnegie Mellon University). Gaussian is a federally registered
 trademark of Gaussian, Inc.
  
 This software contains proprietary and confidential information,
 including trade secrets, belonging to Gaussian, Inc.
  
 This software is provided under written license and may be
 used, copied, transmitted, or stored only in accord with that
 written license.
  
 The following legend is applicable only to US Government
 contracts under FAR:
  
                    RESTRICTED RIGHTS LEGEND
  
 Use, reproduction and disclosure by the US Government is
 subject to restrictions as set forth in subparagraphs (a)
 and (c) of the Commercial Computer Software - Restricted
 Rights clause in FAR 52.227-19.
  
 Gaussian, Inc.
 340 Quinnipiac St., Bldg. 40, Wallingford CT 06492
  
  
 ---------------------------------------------------------------
 Warning -- This program may not be used in any manner that
 competes with the business of Gaussian, Inc. or will provide
 assistance to any competitor of Gaussian, Inc.  The licensee
 of this program is prohibited from giving any competitor of
 Gaussian, Inc. access to this program.  By using this program,
 the user acknowledges that Gaussian, Inc. is engaged in the
 business of creating and licensing software in the field of
 computational chemistry and represents and warrants to the
 licensee that it is not a competitor of Gaussian, Inc. and that
 it will not use this program in any manner prohibited above.
 ---------------------------------------------------------------
  

 Cite this work as:
 Gaussian 16, Revision A.03,
 M. J. Frisch, G. W. Trucks, H. B. Schlegel, G. E. Scuseria, 
 M. A. Robb, J. R. Cheeseman, G. Scalmani, V. Barone, 
 G. A. Petersson, H. Nakatsuji, X. Li, M. Caricato, A. V. Marenich, 
 J. Bloino, B. G. Janesko, R. Gomperts, B. Mennucci, H. P. Hratchian, 
 J. V. Ortiz, A. F. Izmaylov, J. L. Sonnenberg, D. Williams-Young, 
 F. Ding, F. Lipparini, F. Egidi, J. Goings, B. Peng, A. Petrone, 
 T. Henderson, D. Ranasinghe, V. G. Zakrzewski, J. Gao, N. Rega, 
 G. Zheng, W. Liang, M. Hada, M. Ehara, K. Toyota, R. Fukuda, 
 J. Hasegawa, M. Ishida, T. Nakajima, Y. Honda, O. Kitao, H. Nakai, 
 T. Vreven, K. Throssell, J. A. Montgomery, Jr., J. E. Peralta, 
 F. Ogliaro, M. J. Bearpark, J. J. Heyd, E. N. Brothers, K. N. Kudin, 
 V. N. Staroverov, T. A. Keith, R. Kobayashi, J. Normand, 
 K. Raghavachari, A. P. Rendell, J. C. Burant, S. S. Iyengar, 
 J. Tomasi, M. Cossi, J. M. Millam, M. Klene, C. Adamo, R. Cammi, 
 J. W. Ochterski, R. L. Martin, K. Morokuma, O. Farkas, 
 J. B. Foresman, and D. J. Fox, Gaussian, Inc., Wallingford CT, 2016.
 
 ******************************************
 Gaussian 16:  ES64L-G16RevA.03 25-Dec-2016
                28-Feb-2021 
 ******************************************
 %nprocshared=16
 Will use up to   16 processors via shared memory.
 %mem=48GB
 ----------------------------------------------------------------------
 # wB97XD def2tzvp, opt=(ts, noeigen, calcfc, maxcycles=70, maxstep=8),
  freq=noraman, scrf=(iefpcm, solvent=water)
 ----------------------------------------------------------------------
 1/5=1,6=70,8=8,10=4,11=1,18=20,26=3,38=1/1,3;
 2/9=110,12=2,17=6,18=5,40=1/2;
 3/5=44,7=101,11=2,25=1,30=1,70=2201,71=2,72=1,74=-58,140=1/1,2,3;
 4//1;
 5/5=2,38=5,53=1/2;
 8/6=4,10=90,11=11/1;
 11/6=1,8=1,9=11,15=111,16=1/1,2,10;
 10/6=1,13=1/2;
 6/7=2,8=2,9=2,10=2,28=1/1;
 7/10=1,18=20,25=1/1,2,3,16;
 1/5=1,6=70,8=8,10=4,11=1,18=20,26=3/3(2);
 2/9=110/2;
 99//99;
 2/9=110/2;
 3/5=44,7=101,11=2,25=1,30=1,70=2205,71=1,72=1,74=-58/1,2,3;
 4/5=5,16=3,69=1/1;
 5/5=2,38=5,53=1/2;
 7//1,2,3,16;
 1/5=1,6=70,8=8,11=1,18=20,26=3/3(-5);
 2/9=110/2;
 6/7=2,8=2,9=2,10=2,19=2,28=1/1;
 99/9=1/99;
 ------------------------
 1_iteration/TS-941-1.out
 ------------------------
 Symbolic Z-matrix:
 Charge =  0 Multiplicity = 1
 C                    -0.37221   1.1514   -0.1096 
 C                    -1.76812   0.74642  -0.18789 
 O                    -2.63725   1.54841  -0.57047 
 C                     0.76064   0.34494  -0.00533 
 C                     0.39536  -0.25399   2.57692 
 H                     0.17818  -1.30741   2.4205 
 H                     0.77155  -0.10379   3.58592 
 H                    -0.50272   0.34213   2.42227 
 N                     1.39828   0.18371   1.60221 
 H                     1.72105   1.12186   1.82494 
 H                     2.21296  -0.42507   1.59103 
 Cl                    2.27531   1.03526  -0.76091 
 Br                    0.7091   -1.54896  -0.54804 
 C                    -0.14797   2.65121  -0.14561 
 H                     0.65404   2.97058   0.52398 
 H                     0.10123   3.02377  -1.14467 
 H                    -1.06026   3.15242   0.17077 
 N                    -2.17469  -0.49669   0.19834 
 C                    -3.52038  -0.95849  -0.04433 
 H                    -1.49939  -1.17744   0.48499 
 H                    -3.59669  -1.98942   0.29669 
 H                    -4.2502   -0.35799   0.50098 
 H                    -3.77931  -0.92085  -1.10563 
 

 GradGradGradGradGradGradGradGradGradGradGradGradGradGradGradGradGradGrad
 Berny optimization.
 Initialization pass.
                           ----------------------------
                           !    Initial Parameters    !
                           ! (Angstroms and Degrees)  !
 --------------------------                            --------------------------
 ! Name  Definition              Value          Derivative Info.                !
 --------------------------------------------------------------------------------
 ! R1    R(1,2)                  1.4556         calculate D2E/DX2 analytically  !
 ! R2    R(1,4)                  1.3945         calculate D2E/DX2 analytically  !
 ! R3    R(1,14)                 1.5169         calculate D2E/DX2 analytically  !
 ! R4    R(2,3)                  1.243          calculate D2E/DX2 analytically  !
 ! R5    R(2,18)                 1.3637         calculate D2E/DX2 analytically  !
 ! R6    R(4,9)                  1.7369         calculate D2E/DX2 analytically  !
 ! R7    R(4,12)                 1.828          calculate D2E/DX2 analytically  !
 ! R8    R(4,13)                 1.9708         calculate D2E/DX2 analytically  !
 ! R9    R(5,6)                  1.0869         calculate D2E/DX2 analytically  !
 ! R10   R(5,7)                  1.0873         calculate D2E/DX2 analytically  !
 ! R11   R(5,8)                  1.089          calculate D2E/DX2 analytically  !
 ! R12   R(5,9)                  1.4654         calculate D2E/DX2 analytically  !
 ! R13   R(9,10)                 1.0168         calculate D2E/DX2 analytically  !
 ! R14   R(9,11)                 1.0171         calculate D2E/DX2 analytically  !
 ! R15   R(14,15)                1.0925         calculate D2E/DX2 analytically  !
 ! R16   R(14,16)                1.095          calculate D2E/DX2 analytically  !
 ! R17   R(14,17)                1.0879         calculate D2E/DX2 analytically  !
 ! R18   R(18,19)                1.4433         calculate D2E/DX2 analytically  !
 ! R19   R(18,20)                1.0008         calculate D2E/DX2 analytically  !
 ! R20   R(19,21)                1.0885         calculate D2E/DX2 analytically  !
 ! R21   R(19,22)                1.0911         calculate D2E/DX2 analytically  !
 ! R22   R(19,23)                1.0931         calculate D2E/DX2 analytically  !
 ! A1    A(2,1,4)              128.4765         calculate D2E/DX2 analytically  !
 ! A2    A(2,1,14)             114.5559         calculate D2E/DX2 analytically  !
 ! A3    A(4,1,14)             116.9675         calculate D2E/DX2 analytically  !
 ! A4    A(1,2,3)              120.5052         calculate D2E/DX2 analytically  !
 ! A5    A(1,2,18)             121.6204         calculate D2E/DX2 analytically  !
 ! A6    A(3,2,18)             117.8307         calculate D2E/DX2 analytically  !
 ! A7    A(1,4,9)              114.9057         calculate D2E/DX2 analytically  !
 ! A8    A(1,4,12)             115.0762         calculate D2E/DX2 analytically  !
 ! A9    A(1,4,13)             120.9252         calculate D2E/DX2 analytically  !
 ! A10   A(9,4,12)              96.5124         calculate D2E/DX2 analytically  !
 ! A11   A(9,4,13)             100.094          calculate D2E/DX2 analytically  !
 ! A12   A(12,4,13)            105.7086         calculate D2E/DX2 analytically  !
 ! A13   A(6,5,7)              109.6687         calculate D2E/DX2 analytically  !
 ! A14   A(6,5,8)              110.2022         calculate D2E/DX2 analytically  !
 ! A15   A(6,5,9)              109.3001         calculate D2E/DX2 analytically  !
 ! A16   A(7,5,8)              109.9694         calculate D2E/DX2 analytically  !
 ! A17   A(7,5,9)              109.828          calculate D2E/DX2 analytically  !
 ! A18   A(8,5,9)              107.8459         calculate D2E/DX2 analytically  !
 ! A19   A(4,9,5)              113.084          calculate D2E/DX2 analytically  !
 ! A20   A(4,9,10)             103.5105         calculate D2E/DX2 analytically  !
 ! A21   A(4,9,11)             109.8434         calculate D2E/DX2 analytically  !
 ! A22   A(5,9,10)             110.3116         calculate D2E/DX2 analytically  !
 ! A23   A(5,9,11)             112.131          calculate D2E/DX2 analytically  !
 ! A24   A(10,9,11)            107.4814         calculate D2E/DX2 analytically  !
 ! A25   A(1,14,15)            112.5199         calculate D2E/DX2 analytically  !
 ! A26   A(1,14,16)            113.0606         calculate D2E/DX2 analytically  !
 ! A27   A(1,14,17)            108.944          calculate D2E/DX2 analytically  !
 ! A28   A(15,14,16)           107.0177         calculate D2E/DX2 analytically  !
 ! A29   A(15,14,17)           107.6184         calculate D2E/DX2 analytically  !
 ! A30   A(16,14,17)           107.4229         calculate D2E/DX2 analytically  !
 ! A31   A(2,18,19)            121.4676         calculate D2E/DX2 analytically  !
 ! A32   A(2,18,20)            119.999          calculate D2E/DX2 analytically  !
 ! A33   A(19,18,20)           117.3645         calculate D2E/DX2 analytically  !
 ! A34   A(18,19,21)           108.4043         calculate D2E/DX2 analytically  !
 ! A35   A(18,19,22)           111.3162         calculate D2E/DX2 analytically  !
 ! A36   A(18,19,23)           111.9068         calculate D2E/DX2 analytically  !
 ! A37   A(21,19,22)           108.5273         calculate D2E/DX2 analytically  !
 ! A38   A(21,19,23)           108.6737         calculate D2E/DX2 analytically  !
 ! A39   A(22,19,23)           107.9291         calculate D2E/DX2 analytically  !
 ! D1    D(4,1,2,3)           -164.001          calculate D2E/DX2 analytically  !
 ! D2    D(4,1,2,18)            18.4547         calculate D2E/DX2 analytically  !
 ! D3    D(14,1,2,3)            16.1191         calculate D2E/DX2 analytically  !
 ! D4    D(14,1,2,18)         -161.4253         calculate D2E/DX2 analytically  !
 ! D5    D(2,1,4,9)            -99.2389         calculate D2E/DX2 analytically  !
 ! D6    D(2,1,4,12)           149.9479         calculate D2E/DX2 analytically  !
 ! D7    D(2,1,4,13)            20.9874         calculate D2E/DX2 analytically  !
 ! D8    D(14,1,4,9)            80.6386         calculate D2E/DX2 analytically  !
 ! D9    D(14,1,4,12)          -30.1746         calculate D2E/DX2 analytically  !
 ! D10   D(14,1,4,13)         -159.1352         calculate D2E/DX2 analytically  !
 ! D11   D(2,1,14,15)          141.6748         calculate D2E/DX2 analytically  !
 ! D12   D(2,1,14,16)          -96.9356         calculate D2E/DX2 analytically  !
 ! D13   D(2,1,14,17)           22.4172         calculate D2E/DX2 analytically  !
 ! D14   D(4,1,14,15)          -38.2198         calculate D2E/DX2 analytically  !
 ! D15   D(4,1,14,16)           83.1699         calculate D2E/DX2 analytically  !
 ! D16   D(4,1,14,17)         -157.4774         calculate D2E/DX2 analytically  !
 ! D17   D(1,2,18,19)         -171.617          calculate D2E/DX2 analytically  !
 ! D18   D(1,2,18,20)           -4.2989         calculate D2E/DX2 analytically  !
 ! D19   D(3,2,18,19)           10.7754         calculate D2E/DX2 analytically  !
 ! D20   D(3,2,18,20)          178.0935         calculate D2E/DX2 analytically  !
 ! D21   D(1,4,9,5)             53.3018         calculate D2E/DX2 analytically  !
 ! D22   D(1,4,9,10)           -66.0706         calculate D2E/DX2 analytically  !
 ! D23   D(1,4,9,11)           179.4003         calculate D2E/DX2 analytically  !
 ! D24   D(12,4,9,5)           174.8569         calculate D2E/DX2 analytically  !
 ! D25   D(12,4,9,10)           55.4845         calculate D2E/DX2 analytically  !
 ! D26   D(12,4,9,11)          -59.0447         calculate D2E/DX2 analytically  !
 ! D27   D(13,4,9,5)           -77.8591         calculate D2E/DX2 analytically  !
 ! D28   D(13,4,9,10)          162.7685         calculate D2E/DX2 analytically  !
 ! D29   D(13,4,9,11)           48.2394         calculate D2E/DX2 analytically  !
 ! D30   D(6,5,9,4)             73.5287         calculate D2E/DX2 analytically  !
 ! D31   D(6,5,9,10)          -171.0956         calculate D2E/DX2 analytically  !
 ! D32   D(6,5,9,11)           -51.3386         calculate D2E/DX2 analytically  !
 ! D33   D(7,5,9,4)           -166.1154         calculate D2E/DX2 analytically  !
 ! D34   D(7,5,9,10)           -50.7397         calculate D2E/DX2 analytically  !
 ! D35   D(7,5,9,11)            69.0173         calculate D2E/DX2 analytically  !
 ! D36   D(8,5,9,4)            -46.2822         calculate D2E/DX2 analytically  !
 ! D37   D(8,5,9,10)            69.0936         calculate D2E/DX2 analytically  !
 ! D38   D(8,5,9,11)          -171.1494         calculate D2E/DX2 analytically  !
 ! D39   D(2,18,19,21)         176.8772         calculate D2E/DX2 analytically  !
 ! D40   D(2,18,19,22)         -63.8272         calculate D2E/DX2 analytically  !
 ! D41   D(2,18,19,23)          57.042          calculate D2E/DX2 analytically  !
 ! D42   D(20,18,19,21)          9.239          calculate D2E/DX2 analytically  !
 ! D43   D(20,18,19,22)        128.5345         calculate D2E/DX2 analytically  !
 ! D44   D(20,18,19,23)       -110.5962         calculate D2E/DX2 analytically  !
 --------------------------------------------------------------------------------
 Trust Radius=8.00D-02 FncErr=1.00D-07 GrdErr=1.00D-06 EigMax=2.50D+02 EigMin=1.00D-04
 Number of steps in this run=     70 maximum allowed number of steps=    138.
 Search for a saddle point of order  1.
 GradGradGradGradGradGradGradGradGradGradGradGradGradGradGradGradGradGrad

                          Input orientation:                          
 ---------------------------------------------------------------------
 Center     Atomic      Atomic             Coordinates (Angstroms)
 Number     Number       Type             X           Y           Z
 ---------------------------------------------------------------------
      1          6           0       -0.372210    1.151400   -0.109600
      2          6           0       -1.768120    0.746420   -0.187890
      3          8           0       -2.637250    1.548410   -0.570470
      4          6           0        0.760640    0.344940   -0.005330
      5          6           0        0.395360   -0.253990    2.576920
      6          1           0        0.178180   -1.307410    2.420500
      7          1           0        0.771550   -0.103790    3.585920
      8          1           0       -0.502720    0.342130    2.422270
      9          7           0        1.398280    0.183710    1.602210
     10          1           0        1.721050    1.121860    1.824940
     11          1           0        2.212960   -0.425070    1.591030
     12         17           0        2.275310    1.035260   -0.760910
     13         35           0        0.709100   -1.548960   -0.548040
     14          6           0       -0.147970    2.651210   -0.145610
     15          1           0        0.654040    2.970580    0.523980
     16          1           0        0.101230    3.023770   -1.144670
     17          1           0       -1.060260    3.152420    0.170770
     18          7           0       -2.174690   -0.496690    0.198340
     19          6           0       -3.520380   -0.958490   -0.044330
     20          1           0       -1.499390   -1.177440    0.484990
     21          1           0       -3.596690   -1.989420    0.296690
     22          1           0       -4.250200   -0.357990    0.500980
     23          1           0       -3.779310   -0.920850   -1.105630
 ---------------------------------------------------------------------
                    Distance matrix (angstroms):
                    1          2          3          4          5
     1  C    0.000000
     2  C    1.455576   0.000000
     3  O    2.345298   1.242957   0.000000
     4  C    1.394489   2.566932   3.648750   0.000000
     5  C    3.127567   3.650430   4.727730   2.675848   0.000000
     6  H    3.570726   3.848376   5.002825   2.992352   1.086889
     7  H    4.067008   4.627572   5.623634   3.619192   1.087272
     8  H    2.661262   2.928758   3.868827   2.736664   1.088955
     9  N    2.646007   3.680651   4.782096   1.736884   1.465431
    10  H    2.850448   4.045584   4.991464   2.208140   2.053264
    11  H    3.472824   4.515080   5.664913   2.291400   2.074829
    12  Cl   2.728929   4.094033   4.942958   1.828023   4.041966
    13  Br   2.941667   3.396336   4.559853   1.970799   3.397169
    14  C    1.516908   2.500980   2.755574   2.482767   4.018403
    15  H    2.182665   3.364596   3.748730   2.680582   3.831361
    16  H    2.191183   3.097777   3.163173   2.984803   4.967943
    17  H    2.134503   2.533484   2.368371   3.350915   4.417241
    18  N    2.461699   1.363743   2.233263   3.060390   3.510228
    19  C    3.790365   2.449029   2.709481   4.475219   4.764482
    20  H    2.654726   2.055777   3.136715   2.768716   2.969682
    21  H    4.519634   3.326155   3.766793   4.952452   4.914024
    22  H    4.205933   2.802675   2.717347   5.085172   5.089359
    23  H    4.110307   2.768921   2.772714   4.839838   5.606581
                    6          7          8          9         10
     6  H    0.000000
     7  H    1.777356   0.000000
     8  H    1.784548   1.782327   0.000000
     9  N    2.093247   2.100131   2.076390   0.000000
    10  H    2.938791   2.346235   2.431036   1.016816   0.000000
    11  H    2.367884   2.482029   2.941849   1.017075   1.640025
    12  Cl   4.472966   4.738529   4.281415   2.660574   2.646001
    13  Br   3.025302   4.379731   3.723905   2.846171   3.713268
    14  C    4.728844   4.728621   3.471557   3.396221   3.116924
    15  H    4.703661   4.340626   3.442433   3.079467   2.499755
    16  H    5.610301   5.710468   4.503222   4.158561   3.880678
    17  H    5.146368   5.061786   3.643876   4.111773   3.820358
    18  N    3.336354   4.506706   2.906023   3.898706   4.521319
    19  C    4.458304   5.685938   4.108771   5.311208   5.940927
    20  H    2.564631   3.990697   2.656219   3.390782   4.177736
    21  H    4.384672   5.784130   4.418921   5.601482   6.347753
    22  H    4.918994   5.899105   4.269090   5.780266   6.292746
    23  H    5.314579   6.586999   4.977674   5.946418   6.558572
                   11         12         13         14         15
    11  H    0.000000
    12  Cl   2.769129   0.000000
    13  Br   2.846110   3.029277   0.000000
    14  C    4.248930   2.976940   4.305572   0.000000
    15  H    3.885777   2.832829   4.645266   1.092505   0.000000
    16  H    4.882413   2.971206   4.651380   1.094999   1.758642
    17  H    5.052677   4.059116   5.074475   1.087925   1.759729
    18  N    4.603932   4.803075   3.159209   3.759677   4.486615
    19  C    5.985827   6.170782   4.300102   4.940986   5.760759
    20  H    3.946001   4.549359   2.466294   4.108838   4.673848
    21  H    6.154229   6.689364   4.409921   5.798685   6.536204
    22  H    6.554780   6.790861   5.207063   5.128514   5.927181
    23  H    6.589770   6.372097   4.566317   5.183424   6.119922
                   16         17         18         19         20
    16  H    0.000000
    17  H    1.759543   0.000000
    18  N    4.401946   3.815589   0.000000
    19  C    5.494106   4.795627   1.443270   0.000000
    20  H    4.782044   4.363400   1.000809   2.100600   0.000000
    21  H    6.394076   5.734793   2.063977   1.088547   2.256864
    22  H    5.751470   4.754759   2.102040   1.091146   2.870315
    23  H    5.533547   5.061023   2.110700   1.093078   2.791764
                   21         22         23
    21  H    0.000000
    22  H    1.769286   0.000000
    23  H    1.772482   1.766280   0.000000
 Stoichiometry    C6H12BrClN2O
 Framework group  C1[X(C6H12BrClN2O)]
 Deg. of freedom    63
 Full point group                 C1      NOp   1
 Largest Abelian subgroup         C1      NOp   1
 Largest concise Abelian subgroup C1      NOp   1
                         Standard orientation:                         
 ---------------------------------------------------------------------
 Center     Atomic      Atomic             Coordinates (Angstroms)
 Number     Number       Type             X           Y           Z
 ---------------------------------------------------------------------
      1          6           0       -0.372214    1.151400   -0.109600
      2          6           0       -1.768123    0.746417   -0.187890
      3          8           0       -2.637255    1.548406   -0.570470
      4          6           0        0.760637    0.344942   -0.005330
      5          6           0        0.395358   -0.253989    2.576920
      6          1           0        0.178180   -1.307409    2.420500
      7          1           0        0.771548   -0.103788    3.585920
      8          1           0       -0.502723    0.342129    2.422270
      9          7           0        1.398278    0.183713    1.602210
     10          1           0        1.721046    1.121863    1.824940
     11          1           0        2.212959   -0.425066    1.591030
     12         17           0        2.275306    1.035264   -0.760910
     13         35           0        0.709101   -1.548959   -0.548040
     14          6           0       -0.147977    2.651210   -0.145610
     15          1           0        0.654033    2.970581    0.523980
     16          1           0        0.101223    3.023770   -1.144670
     17          1           0       -1.060268    3.152418    0.170770
     18          7           0       -2.174691   -0.496694    0.198340
     19          6           0       -3.520380   -0.958496   -0.044330
     20          1           0       -1.499390   -1.177442    0.484990
     21          1           0       -3.596689   -1.989426    0.296690
     22          1           0       -4.250202   -0.357997    0.500980
     23          1           0       -3.779311   -0.920856   -1.105630
 ---------------------------------------------------------------------
 Rotational constants (GHZ):           0.8110800           0.5743667           0.4569261
 Standard basis: def2TZVP (5D, 7F)
 There are   493 symmetry adapted cartesian basis functions of A   symmetry.
 There are   436 symmetry adapted basis functions of A   symmetry.
   436 basis functions,   738 primitive gaussians,   493 cartesian basis functions
    61 alpha electrons       61 beta electrons
       nuclear repulsion energy      1128.7082250696 Hartrees.
 NAtoms=   23 NActive=   23 NUniq=   23 SFac= 1.00D+00 NAtFMM=   60 NAOKFM=F Big=F
 Integral buffers will be    131072 words long.
 Raffenetti 2 integral format.
 Two-electron integral symmetry is turned on.
 Nuclear repulsion after empirical dispersion term =     1128.6914744969 Hartrees.
 Force inversion solution in PCM.
 ------------------------------------------------------------------------------
 Polarizable Continuum Model (PCM)
 =================================
 Model                : PCM.
 Atomic radii         : UFF (Universal Force Field).
 Polarization charges : Total charges.
 Charge compensation  : None.
 Solution method      : Matrix inversion.
 Cavity type          : Scaled VdW (van der Waals Surface) (Alpha=1.100).
 Cavity algorithm     : GePol (No added spheres)
                        Default sphere list used, NSphG=   23.
                        Lebedev-Laikov grids with approx.  5.0 points / Ang**2.
                        Smoothing algorithm: York/Karplus (Gamma=1.0000).
                        Polarization charges: spherical gaussians, with
                                              point-specific exponents (IZeta= 3).
                        Self-potential: point-specific (ISelfS= 7).
                        Self-field    : sphere-specific E.n sum rule (ISelfD= 2).
 1st derivatives      : Analytical E(r).r(x)/FMM algorithm (CHGder, D1EAlg=3).
                        Cavity 1st derivative terms included.
 2nd derivatives      : Analytical E(r).r(xy)/FMM algorithm (CHGder, D2EAlg=3).
                        Cavity 2nd derivative terms included.
 Solvent              : Water, Eps=  78.355300 Eps(inf)=   1.777849
 ------------------------------------------------------------------------------
 One-electron integrals computed using PRISM.
   1 Symmetry operations used in ECPInt.
 ECPInt:  NShTT=   15576 NPrTT=   51057 LenC2=   14847 LenP2D=   36023.
 LDataN:  DoStor=T MaxTD1= 6 Len=  172
 NBasis=   436 RedAO= T EigKep=  7.41D-05  NBF=   436
 NBsUse=   436 1.00D-06 EigRej= -1.00D+00 NBFU=   436
 ExpMin= 9.52D-02 ExpMax= 5.65D+05 ExpMxC= 5.46D+03 IAcc=3 IRadAn=         5 AccDes= 0.00D+00
 Harris functional with IExCor= 4639 and IRadAn=       5 diagonalized for initial guess.
 HarFok:  IExCor= 4639 AccDes= 0.00D+00 IRadAn=         5 IDoV= 1 UseB2=F ITyADJ=14
 ICtDFT=  3500011 ScaDFX=  1.000000  1.000000  1.000000  1.000000
 FoFCou: FMM=F IPFlag=           0 FMFlag=      100000 FMFlg1=           0
         NFxFlg=           0 DoJE=T BraDBF=F KetDBF=T FulRan=T
         wScrn=  0.000000 ICntrl=       500 IOpCl=  0 I1Cent=   200000004 NGrid=           0
         NMat0=    1 NMatS0=      1 NMatT0=    0 NMatD0=    1 NMtDS0=    0 NMtDT0=    0
 Petite list used in FoFCou.
 Requested convergence on RMS density matrix=1.00D-08 within 128 cycles.
 Requested convergence on MAX density matrix=1.00D-06.
 Requested convergence on             energy=1.00D-06.
 No special actions if energy rises.
 Inv3:  Mode=1 IEnd=     9763248.
 Iteration    1 A*A^-1 deviation from unit magnitude is 6.11D-15 for   1795.
 Iteration    1 A*A^-1 deviation from orthogonality  is 1.41D-15 for   1789   1718.
 Iteration    1 A^-1*A deviation from unit magnitude is 5.88D-15 for   1795.
 Iteration    1 A^-1*A deviation from orthogonality  is 1.80D-15 for   1147     65.
 Error on total polarization charges =  0.01433
 SCF Done:  E(RwB97XD) =  -3454.99932068     A.U. after   15 cycles
            NFock= 15  Conv=0.73D-08     -V/T= 2.0018
 DoSCS=F DFT=T ScalE2(SS,OS)=  1.000000  1.000000
 Range of M.O.s used for correlation:     1   436
 NBasis=   436 NAE=    61 NBE=    61 NFC=     0 NFV=     0
 NROrb=    436 NOA=    61 NOB=    61 NVA=   375 NVB=   375

 **** Warning!!: The largest alpha MO coefficient is  0.27179031D+02

   1 Symmetry operations used in ECPInt.
 ECPInt:  NShTT=   15576 NPrTT=   51057 LenC2=   14847 LenP2D=   36023.
 LDataN:  DoStor=T MaxTD1= 7 Len=  274
 Symmetrizing basis deriv contribution to polar:
 IMax=3 JMax=2 DiffMx= 0.00D+00
 G2DrvN: will do    24 centers at a time, making    1 passes.
 Calling FoFCou, ICntrl=  3107 FMM=F I1Cent=   0 AccDes= 0.00D+00.
 NEqPCM:  Using equilibrium solvation (IEInf=0, Eps=  78.3553, EpsInf=   1.7778)
 G2PCM: DoFxE=T DoFxN=T DoGrad=T DoDP/DQ/DG/TGxP=FFFF NFrqRd=   0 IEInf=0 SqF1=F DoCFld=F IF1Alg=4.
 End of G2Drv F.D. properties file   721 does not exist.
 End of G2Drv F.D. properties file   722 does not exist.
 End of G2Drv F.D. properties file   788 does not exist.
          IDoAtm=11111111111111111111111
 NEqPCM:  Using equilibrium solvation (IEInf=0, Eps=  78.3553, EpsInf=   1.7778)
          Differentiating once with respect to nuclear coordinates.
 CalDSu exits because no D1Ps are significant.
          There are    72 degrees of freedom in the 1st order CPHF.  IDoFFX=6 NUNeed=     0.
     66 vectors produced by pass  0 Test12= 3.18D-14 1.39D-09 XBig12= 1.18D-01 1.56D-01.
 AX will form    66 AO Fock derivatives at one time.
     66 vectors produced by pass  1 Test12= 3.18D-14 1.39D-09 XBig12= 2.72D-02 5.09D-02.
     66 vectors produced by pass  2 Test12= 3.18D-14 1.39D-09 XBig12= 6.59D-04 4.34D-03.
     66 vectors produced by pass  3 Test12= 3.18D-14 1.39D-09 XBig12= 1.04D-05 5.43D-04.
     66 vectors produced by pass  4 Test12= 3.18D-14 1.39D-09 XBig12= 1.08D-07 5.22D-05.
     66 vectors produced by pass  5 Test12= 3.18D-14 1.39D-09 XBig12= 9.62D-10 5.21D-06.
     66 vectors produced by pass  6 Test12= 3.18D-14 1.39D-09 XBig12= 7.18D-12 3.21D-07.
     29 vectors produced by pass  7 Test12= 3.18D-14 1.39D-09 XBig12= 5.06D-14 1.69D-08.
      3 vectors produced by pass  8 Test12= 3.18D-14 1.39D-09 XBig12= 6.42D-16 2.59D-09.
 InvSVY:  IOpt=1 It=  1 EMax= 6.66D-16
 Solved reduced A of dimension   494 with    72 vectors.
 End of Minotr F.D. properties file   721 does not exist.
 End of Minotr F.D. properties file   722 does not exist.
 End of Minotr F.D. properties file   788 does not exist.

 **********************************************************************

            Population analysis using the SCF density.

 **********************************************************************

 Orbital symmetries:
       Occupied  (A) (A) (A) (A) (A) (A) (A) (A) (A) (A) (A) (A)
                 (A) (A) (A) (A) (A) (A) (A) (A) (A) (A) (A) (A)
                 (A) (A) (A) (A) (A) (A) (A) (A) (A) (A) (A) (A)
                 (A) (A) (A) (A) (A) (A) (A) (A) (A) (A) (A) (A)
                 (A) (A) (A) (A) (A) (A) (A) (A) (A) (A) (A) (A)
                 (A)
       Virtual   (A) (A) (A) (A) (A) (A) (A) (A) (A) (A) (A) (A)
                 (A) (A) (A) (A) (A) (A) (A) (A) (A) (A) (A) (A)
                 (A) (A) (A) (A) (A) (A) (A) (A) (A) (A) (A) (A)
                 (A) (A) (A) (A) (A) (A) (A) (A) (A) (A) (A) (A)
                 (A) (A) (A) (A) (A) (A) (A) (A) (A) (A) (A) (A)
                 (A) (A) (A) (A) (A) (A) (A) (A) (A) (A) (A) (A)
                 (A) (A) (A) (A) (A) (A) (A) (A) (A) (A) (A) (A)
                 (A) (A) (A) (A) (A) (A) (A) (A) (A) (A) (A) (A)
                 (A) (A) (A) (A) (A) (A) (A) (A) (A) (A) (A) (A)
                 (A) (A) (A) (A) (A) (A) (A) (A) (A) (A) (A) (A)
                 (A) (A) (A) (A) (A) (A) (A) (A) (A) (A) (A) (A)
                 (A) (A) (A) (A) (A) (A) (A) (A) (A) (A) (A) (A)
                 (A) (A) (A) (A) (A) (A) (A) (A) (A) (A) (A) (A)
                 (A) (A) (A) (A) (A) (A) (A) (A) (A) (A) (A) (A)
                 (A) (A) (A) (A) (A) (A) (A) (A) (A) (A) (A) (A)
                 (A) (A) (A) (A) (A) (A) (A) (A) (A) (A) (A) (A)
                 (A) (A) (A) (A) (A) (A) (A) (A) (A) (A) (A) (A)
                 (A) (A) (A) (A) (A) (A) (A) (A) (A) (A) (A) (A)
                 (A) (A) (A) (A) (A) (A) (A) (A) (A) (A) (A) (A)
                 (A) (A) (A) (A) (A) (A) (A) (A) (A) (A) (A) (A)
                 (A) (A) (A) (A) (A) (A) (A) (A) (A) (A) (A) (A)
                 (A) (A) (A) (A) (A) (A) (A) (A) (A) (A) (A) (A)
                 (A) (A) (A) (A) (A) (A) (A) (A) (A) (A) (A) (A)
                 (A) (A) (A) (A) (A) (A) (A) (A) (A) (A) (A) (A)
                 (A) (A) (A) (A) (A) (A) (A) (A) (A) (A) (A) (A)
                 (A) (A) (A) (A) (A) (A) (A) (A) (A) (A) (A) (A)
                 (A) (A) (A) (A) (A) (A) (A) (A) (A) (A) (A) (A)
                 (A) (A) (A) (A) (A) (A) (A) (A) (A) (A) (A) (A)
                 (A) (A) (A) (A) (A) (A) (A) (A) (A) (A) (A) (A)
                 (A) (A) (A) (A) (A) (A) (A) (A) (A) (A) (A) (A)
                 (A) (A) (A) (A) (A) (A) (A) (A) (A) (A) (A) (A)
                 (A) (A) (A)
 The electronic state is 1-A.
 Alpha  occ. eigenvalues -- -483.14249-101.70100 -62.69098 -56.48221 -56.47855
 Alpha  occ. eigenvalues --  -56.47845 -19.18890 -14.53115 -14.43755 -10.45192
 Alpha  occ. eigenvalues --  -10.36980 -10.33156 -10.30300 -10.26789 -10.26127
 Alpha  occ. eigenvalues --   -9.58703  -8.83205  -7.33337  -7.32484  -7.32454
 Alpha  occ. eigenvalues --   -6.65372  -6.64215  -6.64187  -2.75750  -2.75427
 Alpha  occ. eigenvalues --   -2.75404  -2.74470  -2.74468  -1.11741  -1.08694
 Alpha  occ. eigenvalues --   -1.00372  -0.97781  -0.89638  -0.86890  -0.81283
 Alpha  occ. eigenvalues --   -0.79671  -0.76138  -0.69211  -0.66672  -0.65297
 Alpha  occ. eigenvalues --   -0.61201  -0.59140  -0.55949  -0.55417  -0.53154
 Alpha  occ. eigenvalues --   -0.52001  -0.50269  -0.49817  -0.49761  -0.47853
 Alpha  occ. eigenvalues --   -0.46755  -0.45687  -0.44600  -0.43898  -0.41373
 Alpha  occ. eigenvalues --   -0.40657  -0.38928  -0.37529  -0.33125  -0.32537
 Alpha  occ. eigenvalues --   -0.26290
 Alpha virt. eigenvalues --    0.03085   0.06599   0.08324   0.09658   0.12428
 Alpha virt. eigenvalues --    0.13658   0.15015   0.15540   0.15922   0.17327
 Alpha virt. eigenvalues --    0.18738   0.18922   0.20354   0.20788   0.20998
 Alpha virt. eigenvalues --    0.21941   0.23273   0.23774   0.24008   0.25227
 Alpha virt. eigenvalues --    0.25938   0.26906   0.27495   0.28953   0.29690
 Alpha virt. eigenvalues --    0.30784   0.31230   0.31812   0.33040   0.33208
 Alpha virt. eigenvalues --    0.34076   0.34421   0.36228   0.36913   0.37675
 Alpha virt. eigenvalues --    0.39127   0.39478   0.39771   0.40364   0.41979
 Alpha virt. eigenvalues --    0.42926   0.43370   0.44649   0.45503   0.46094
 Alpha virt. eigenvalues --    0.47606   0.47627   0.48272   0.49063   0.49703
 Alpha virt. eigenvalues --    0.50253   0.51604   0.51678   0.52973   0.53384
 Alpha virt. eigenvalues --    0.53447   0.54439   0.54926   0.55611   0.56565
 Alpha virt. eigenvalues --    0.57289   0.58598   0.58956   0.59800   0.60731
 Alpha virt. eigenvalues --    0.61764   0.62377   0.62861   0.64548   0.64743
 Alpha virt. eigenvalues --    0.65889   0.67651   0.68055   0.69098   0.70279
 Alpha virt. eigenvalues --    0.71906   0.73000   0.73779   0.76404   0.77403
 Alpha virt. eigenvalues --    0.78991   0.80350   0.81576   0.82613   0.84336
 Alpha virt. eigenvalues --    0.85882   0.87285   0.90117   0.91378   0.93497
 Alpha virt. eigenvalues --    0.93862   0.94974   0.97377   0.98456   1.00387
 Alpha virt. eigenvalues --    1.01322   1.04143   1.05333   1.06080   1.07334
 Alpha virt. eigenvalues --    1.08277   1.10387   1.10842   1.11201   1.13731
 Alpha virt. eigenvalues --    1.14960   1.16851   1.17802   1.19118   1.21230
 Alpha virt. eigenvalues --    1.23728   1.25578   1.28591   1.30541   1.31562
 Alpha virt. eigenvalues --    1.33000   1.36243   1.37811   1.39355   1.40707
 Alpha virt. eigenvalues --    1.43275   1.43808   1.45964   1.47057   1.47932
 Alpha virt. eigenvalues --    1.49420   1.50451   1.52844   1.53611   1.54443
 Alpha virt. eigenvalues --    1.55972   1.58096   1.58825   1.59714   1.60149
 Alpha virt. eigenvalues --    1.60556   1.61273   1.62514   1.62761   1.63366
 Alpha virt. eigenvalues --    1.64192   1.65079   1.66719   1.68347   1.69128
 Alpha virt. eigenvalues --    1.69549   1.70554   1.71008   1.72151   1.73159
 Alpha virt. eigenvalues --    1.74836   1.76490   1.77275   1.78542   1.79491
 Alpha virt. eigenvalues --    1.81783   1.82307   1.83036   1.84637   1.85569
 Alpha virt. eigenvalues --    1.87464   1.88069   1.90112   1.92051   1.92298
 Alpha virt. eigenvalues --    1.93464   1.94147   1.94685   1.95859   1.99299
 Alpha virt. eigenvalues --    1.99397   2.00853   2.03714   2.04480   2.06180
 Alpha virt. eigenvalues --    2.07233   2.08068   2.08846   2.10407   2.11175
 Alpha virt. eigenvalues --    2.12186   2.13329   2.14247   2.16037   2.17708
 Alpha virt. eigenvalues --    2.20390   2.21060   2.21690   2.22651   2.24223
 Alpha virt. eigenvalues --    2.26797   2.28227   2.30812   2.30917   2.32314
 Alpha virt. eigenvalues --    2.34655   2.34911   2.36729   2.37685   2.38906
 Alpha virt. eigenvalues --    2.39850   2.40995   2.41552   2.43517   2.44484
 Alpha virt. eigenvalues --    2.46554   2.48592   2.49365   2.49876   2.51839
 Alpha virt. eigenvalues --    2.52579   2.55304   2.56413   2.57608   2.58912
 Alpha virt. eigenvalues --    2.60593   2.61232   2.64177   2.66185   2.67013
 Alpha virt. eigenvalues --    2.67651   2.70308   2.70851   2.72022   2.74313
 Alpha virt. eigenvalues --    2.75974   2.76862   2.78243   2.79547   2.81563
 Alpha virt. eigenvalues --    2.83492   2.85342   2.88157   2.90297   2.93243
 Alpha virt. eigenvalues --    2.95581   2.97674   2.98520   3.02084   3.02888
 Alpha virt. eigenvalues --    3.04769   3.05508   3.07998   3.09057   3.12352
 Alpha virt. eigenvalues --    3.12508   3.14489   3.15968   3.18216   3.20780
 Alpha virt. eigenvalues --    3.22850   3.23549   3.24543   3.25547   3.26180
 Alpha virt. eigenvalues --    3.27930   3.28341   3.28903   3.30252   3.34019
 Alpha virt. eigenvalues --    3.35149   3.36000   3.36666   3.39943   3.41014
 Alpha virt. eigenvalues --    3.41684   3.42402   3.43340   3.45654   3.46762
 Alpha virt. eigenvalues --    3.47039   3.49506   3.53459   3.55655   3.57289
 Alpha virt. eigenvalues --    3.58023   3.59578   3.62635   3.63647   3.64395
 Alpha virt. eigenvalues --    3.65216   3.68596   3.70961   3.72339   3.75604
 Alpha virt. eigenvalues --    3.77366   3.77764   3.79320   3.84556   3.90161
 Alpha virt. eigenvalues --    3.90556   3.91233   3.95127   3.98929   4.00092
 Alpha virt. eigenvalues --    4.01862   4.09479   4.10310   4.12359   4.13970
 Alpha virt. eigenvalues --    4.17330   4.18523   4.21301   4.23754   4.24089
 Alpha virt. eigenvalues --    4.24921   4.27916   4.29504   4.33110   4.34036
 Alpha virt. eigenvalues --    4.37097   4.38775   4.42776   4.46086   4.48027
 Alpha virt. eigenvalues --    4.49806   4.50761   4.55715   4.58795   4.64003
 Alpha virt. eigenvalues --    4.66268   4.71532   4.77821   4.80403   4.85759
 Alpha virt. eigenvalues --    4.90382   4.91896   4.95422   4.99518   5.03327
 Alpha virt. eigenvalues --    5.07117   5.10035   5.10998   5.16087   5.16925
 Alpha virt. eigenvalues --    5.19274   5.20433   5.23284   5.25676   5.33715
 Alpha virt. eigenvalues --    5.37890   5.39754   5.41110   5.44361   5.54431
 Alpha virt. eigenvalues --    5.57362   5.59522   5.63453   5.70955   5.75333
 Alpha virt. eigenvalues --    5.87794   5.94429   6.09927   6.20021   6.43654
 Alpha virt. eigenvalues --    6.53485   6.72935   6.84287   6.95419   7.18467
 Alpha virt. eigenvalues --    7.25770   7.74546  10.87613  10.90335  11.40866
 Alpha virt. eigenvalues --   22.45542  22.48854  22.54065  22.54958  22.96455
 Alpha virt. eigenvalues --   23.49391  25.60194  32.25101  32.57485  44.09948
          Condensed to atoms (all electrons):
               1          2          3          4          5          6
     1  C    6.456050   0.123347  -0.182778   0.306314  -0.000053  -0.010502
     2  C    0.123347   4.592218   0.719505  -0.051865  -0.003177   0.003355
     3  O   -0.182778   0.719505   8.120238   0.002727   0.000026   0.000006
     4  C    0.306314  -0.051865   0.002727   4.902040  -0.025944   0.007482
     5  C   -0.000053  -0.003177   0.000026  -0.025944   4.935032   0.417362
     6  H   -0.010502   0.003355   0.000006   0.007482   0.417362   0.481510
     7  H   -0.000429  -0.000222  -0.000015   0.003684   0.397562  -0.012819
     8  H    0.029703  -0.009492  -0.000519  -0.018412   0.411975  -0.024390
     9  N   -0.103808   0.018075  -0.000066   0.119070   0.230494  -0.035438
    10  H   -0.016368   0.000536  -0.000010   0.009768  -0.012137   0.004521
    11  H    0.013896  -0.000944   0.000008  -0.020626  -0.017665  -0.006215
    12  Cl  -0.116128   0.000333  -0.000173   0.397706   0.004431   0.000057
    13  Br  -0.069304  -0.027917  -0.000047   0.358828  -0.003776   0.002186
    14  C    0.238203  -0.058199   0.005651  -0.059111  -0.001550  -0.000043
    15  H   -0.090687   0.015049   0.002610   0.018879  -0.000310   0.000008
    16  H   -0.050023  -0.002978   0.000225  -0.016113   0.000009  -0.000002
    17  H   -0.033583  -0.016124   0.012269   0.002122   0.000349  -0.000001
    18  N   -0.198530   0.426837  -0.145159  -0.011440   0.005564  -0.002477
    19  C    0.013913  -0.048954   0.008918  -0.000830   0.000022   0.000035
    20  H   -0.019020  -0.032132   0.005379   0.011371   0.000158  -0.000281
    21  H    0.002067   0.010535   0.002603  -0.000120  -0.000083   0.000090
    22  H   -0.000984  -0.011257   0.006308  -0.000003  -0.000100   0.000013
    23  H    0.000779  -0.005870   0.004332   0.000158   0.000075  -0.000014
               7          8          9         10         11         12
     1  C   -0.000429   0.029703  -0.103808  -0.016368   0.013896  -0.116128
     2  C   -0.000222  -0.009492   0.018075   0.000536  -0.000944   0.000333
     3  O   -0.000015  -0.000519  -0.000066  -0.000010   0.000008  -0.000173
     4  C    0.003684  -0.018412   0.119070   0.009768  -0.020626   0.397706
     5  C    0.397562   0.411975   0.230494  -0.012137  -0.017665   0.004431
     6  H   -0.012819  -0.024390  -0.035438   0.004521  -0.006215   0.000057
     7  H    0.468768  -0.014581  -0.016387  -0.004847  -0.002665  -0.000263
     8  H   -0.014581   0.480944  -0.035396  -0.003876   0.004785   0.000716
     9  N   -0.016387  -0.035396   6.468567   0.344381   0.354429  -0.083442
    10  H   -0.004847  -0.003876   0.344381   0.390598  -0.019395   0.000651
    11  H   -0.002665   0.004785   0.354429  -0.019395   0.380958   0.004361
    12  Cl  -0.000263   0.000716  -0.083442   0.000651   0.004361  16.982623
    13  Br   0.000292   0.000983  -0.073196   0.005032  -0.000160  -0.064662
    14  C   -0.000003  -0.000550   0.000055  -0.000610   0.000104  -0.018313
    15  H    0.000016   0.000285   0.003416   0.001345  -0.000189  -0.008079
    16  H    0.000002   0.000050  -0.001490   0.000036   0.000035   0.009134
    17  H   -0.000017  -0.000219   0.000919   0.000005  -0.000003   0.001461
    18  N    0.000689   0.004100  -0.001293  -0.000128  -0.000003  -0.000137
    19  C   -0.000008   0.000224  -0.000084  -0.000002   0.000003   0.000049
    20  H    0.000155  -0.001149  -0.000630  -0.000075   0.000031   0.000253
    21  H   -0.000002  -0.000061   0.000022   0.000000  -0.000002   0.000001
    22  H   -0.000012  -0.000168   0.000003   0.000000   0.000001   0.000001
    23  H    0.000003   0.000039   0.000006  -0.000000  -0.000001  -0.000005
              13         14         15         16         17         18
     1  C   -0.069304   0.238203  -0.090687  -0.050023  -0.033583  -0.198530
     2  C   -0.027917  -0.058199   0.015049  -0.002978  -0.016124   0.426837
     3  O   -0.000047   0.005651   0.002610   0.000225   0.012269  -0.145159
     4  C    0.358828  -0.059111   0.018879  -0.016113   0.002122  -0.011440
     5  C   -0.003776  -0.001550  -0.000310   0.000009   0.000349   0.005564
     6  H    0.002186  -0.000043   0.000008  -0.000002  -0.000001  -0.002477
     7  H    0.000292  -0.000003   0.000016   0.000002  -0.000017   0.000689
     8  H    0.000983  -0.000550   0.000285   0.000050  -0.000219   0.004100
     9  N   -0.073196   0.000055   0.003416  -0.001490   0.000919  -0.001293
    10  H    0.005032  -0.000610   0.001345   0.000036   0.000005  -0.000128
    11  H   -0.000160   0.000104  -0.000189   0.000035  -0.000003  -0.000003
    12  Cl  -0.064662  -0.018313  -0.008079   0.009134   0.001461  -0.000137
    13  Br  34.971070   0.007177  -0.000221   0.000600  -0.000307  -0.021875
    14  C    0.007177   5.003246   0.422682   0.436871   0.406056   0.009722
    15  H   -0.000221   0.422682   0.577201  -0.039163  -0.018919   0.000537
    16  H    0.000600   0.436871  -0.039163   0.568859  -0.026932   0.000044
    17  H   -0.000307   0.406056  -0.018919  -0.026932   0.543833   0.000361
    18  N   -0.021875   0.009722   0.000537   0.000044   0.000361   6.730145
    19  C    0.003536  -0.000709  -0.000015   0.000040  -0.000192   0.268772
    20  H    0.007402  -0.001157  -0.000063   0.000006  -0.000086   0.376400
    21  H    0.000296   0.000016  -0.000002  -0.000001  -0.000004  -0.031152
    22  H   -0.000110  -0.000185  -0.000005   0.000006   0.000088  -0.042926
    23  H    0.000126   0.000008   0.000004  -0.000014  -0.000045  -0.055317
              19         20         21         22         23
     1  C    0.013913  -0.019020   0.002067  -0.000984   0.000779
     2  C   -0.048954  -0.032132   0.010535  -0.011257  -0.005870
     3  O    0.008918   0.005379   0.002603   0.006308   0.004332
     4  C   -0.000830   0.011371  -0.000120  -0.000003   0.000158
     5  C    0.000022   0.000158  -0.000083  -0.000100   0.000075
     6  H    0.000035  -0.000281   0.000090   0.000013  -0.000014
     7  H   -0.000008   0.000155  -0.000002  -0.000012   0.000003
     8  H    0.000224  -0.001149  -0.000061  -0.000168   0.000039
     9  N   -0.000084  -0.000630   0.000022   0.000003   0.000006
    10  H   -0.000002  -0.000075   0.000000   0.000000  -0.000000
    11  H    0.000003   0.000031  -0.000002   0.000001  -0.000001
    12  Cl   0.000049   0.000253   0.000001   0.000001  -0.000005
    13  Br   0.003536   0.007402   0.000296  -0.000110   0.000126
    14  C   -0.000709  -0.001157   0.000016  -0.000185   0.000008
    15  H   -0.000015  -0.000063  -0.000002  -0.000005   0.000004
    16  H    0.000040   0.000006  -0.000001   0.000006  -0.000014
    17  H   -0.000192  -0.000086  -0.000004   0.000088  -0.000045
    18  N    0.268772   0.376400  -0.031152  -0.042926  -0.055317
    19  C    4.788452  -0.026440   0.396586   0.419985   0.426350
    20  H   -0.026440   0.451797  -0.009746   0.003512   0.002850
    21  H    0.396586  -0.009746   0.539374  -0.023130  -0.022464
    22  H    0.419985   0.003512  -0.023130   0.575334  -0.048606
    23  H    0.426350   0.002850  -0.022464  -0.048606   0.578167
 Mulliken charges:
               1
     1  C   -0.292073
     2  C    0.359341
     3  O   -0.562039
     4  C    0.064314
     5  C   -0.338264
     6  H    0.175555
     7  H    0.181102
     8  H    0.175010
     9  N   -0.188207
    10  H    0.300575
    11  H    0.309257
    12  Cl  -0.110575
    13  Br  -0.095953
    14  C   -0.389362
    15  H    0.115623
    16  H    0.120800
    17  H    0.128969
    18  N   -0.312735
    19  C   -0.249653
    20  H    0.231464
    21  H    0.135176
    22  H    0.122236
    23  H    0.119441
 Sum of Mulliken charges =  -0.00000
 Mulliken charges with hydrogens summed into heavy atoms:
               1
     1  C   -0.292073
     2  C    0.359341
     3  O   -0.562039
     4  C    0.064314
     5  C    0.193403
     9  N    0.421624
    12  Cl  -0.110575
    13  Br  -0.095953
    14  C   -0.023970
    18  N   -0.081271
    19  C    0.127200
 APT charges:
               1
     1  C    0.235939
     2  C   -0.472542
     3  O   -0.056503
     4  C   -0.667732
     5  C   -1.056063
     6  H    0.285582
     7  H    0.743310
     8  H    0.190718
     9  N   -0.774294
    10  H    0.663018
    11  H    0.666413
    12  Cl   0.162207
    13  Br   0.074461
    14  C   -1.463847
    15  H    0.359474
    16  H    0.396732
    17  H    0.468064
    18  N   -0.006285
    19  C   -1.391871
    20  H    0.220674
    21  H    0.486405
    22  H    0.538365
    23  H    0.397775
 Sum of APT charges =  -0.00000
 APT charges with hydrogens summed into heavy atoms:
               1
     1  C    0.235939
     2  C   -0.472542
     3  O   -0.056503
     4  C   -0.667732
     5  C    0.163546
     9  N    0.555137
    12  Cl   0.162207
    13  Br   0.074461
    14  C   -0.239577
    18  N    0.214389
    19  C    0.030674
 Electronic spatial extent (au):  <R**2>=           2695.4209
 Charge=             -0.0000 electrons
 Dipole moment (field-independent basis, Debye):
    X=              6.6560    Y=             -4.9179    Z=              8.5170  Tot=             11.8755
 Quadrupole moment (field-independent basis, Debye-Ang):
   XX=            -94.1549   YY=            -90.3093   ZZ=            -75.7854
   XY=             13.6384   XZ=              4.8719   YZ=              3.5486
 Traceless Quadrupole moment (field-independent basis, Debye-Ang):
   XX=             -7.4050   YY=             -3.5595   ZZ=             10.9645
   XY=             13.6384   XZ=              4.8719   YZ=              3.5486
 Octapole moment (field-independent basis, Debye-Ang**2):
  XXX=             68.4558  YYY=            -67.7758  ZZZ=             25.1009  XYY=             24.8696
  XXY=            -53.1857  XXZ=             24.6756  XZZ=             28.6850  YZZ=            -16.7207
  YYZ=              6.2730  XYZ=             -4.3732
 Hexadecapole moment (field-independent basis, Debye-Ang**3):
 XXXX=          -1792.2483 YYYY=          -1019.9607 ZZZZ=           -501.6614 XXXY=             84.5875
 XXXZ=             -9.9825 YYYX=             13.4885 YYYZ=             38.3933 ZZZX=             31.0742
 ZZZY=             26.9350 XXYY=           -494.8753 XXZZ=           -370.7865 YYZZ=           -261.2580
 XXYZ=             29.5864 YYXZ=            -13.3422 ZZXY=              2.6393
 N-N= 1.128691474497D+03 E-N=-1.048473357436D+04  KE= 3.448688457882D+03
  Exact polarizability:   0.000   0.000   0.000   0.000   0.000   0.000
 Approx polarizability: 162.532  -3.984 153.755   2.115  -4.189 129.238
   1 Symmetry operations used in ECPInt.
 ECPInt:  NShTT=   15576 NPrTT=   51057 LenC2=   14847 LenP2D=   36023.
 LDataN:  DoStor=T MaxTD1= 8 Len=  415
 D2PCM: PCM CHGder 2nd derivatives, FixD1E=F FixD2E=F DoIter=F DoCFld=F I1PDM=0
 Calling FoFJK, ICntrl=    100147 FMM=F ISym2X=0 I1Cent= 0 IOpClX= 0 NMat=1 NMatS=1 NMatT=0.
 ***** Axes restored to original set *****
 -------------------------------------------------------------------
 Center     Atomic                   Forces (Hartrees/Bohr)
 Number     Number              X              Y              Z
 -------------------------------------------------------------------
      1        6           0.000000909    0.000000311   -0.000002407
      2        6           0.000002175   -0.000000884   -0.000001167
      3        8          -0.000004014    0.000001237    0.000002420
      4        6          -0.000002032   -0.000001508    0.000001998
      5        6          -0.000001501   -0.000002199   -0.000009123
      6        1           0.000000797   -0.000005196   -0.000004855
      7        1           0.000000337   -0.000006819    0.000002181
      8        1           0.000000844   -0.000005515    0.000000854
      9        7          -0.000003118    0.000001543    0.000007681
     10        1          -0.000001798   -0.000003679    0.000002064
     11        1           0.000002321   -0.000001039   -0.000001794
     12       17           0.000001799    0.000008593    0.000003630
     13       35           0.000002623    0.000011712   -0.000002272
     14        6           0.000002700    0.000004018    0.000008213
     15        1          -0.000004972    0.000001337    0.000008363
     16        1          -0.000001773    0.000004095    0.000008196
     17        1          -0.000004270    0.000001017    0.000008544
     18        7           0.000005053   -0.000004276    0.000003483
     19        6           0.000000380    0.000000328   -0.000005133
     20        1          -0.000001827    0.000003140   -0.000009206
     21        1           0.000003483   -0.000003954   -0.000008992
     22        1           0.000000583   -0.000003942   -0.000003818
     23        1           0.000001304    0.000001680   -0.000008860
 -------------------------------------------------------------------
 Cartesian Forces:  Max     0.000011712 RMS     0.000004477
 FormGI is forming the generalized inverse of G from B-inverse, IUseBI=4.

 GradGradGradGradGradGradGradGradGradGradGradGradGradGradGradGradGradGrad
 Berny optimization.
 Internal  Forces:  Max     0.000007286 RMS     0.000001765
 Search for a saddle point.
 Step number   1 out of a maximum of   70
 All quantities printed in internal units (Hartrees-Bohrs-Radians)
 Swapping is turned off.
 Second derivative matrix not updated -- analytic derivatives used.
 ITU=  0
     Eigenvalues ---   -0.02573   0.00037   0.00120   0.00151   0.00236
     Eigenvalues ---    0.00254   0.00393   0.00672   0.01366   0.01691
     Eigenvalues ---    0.02985   0.03986   0.04680   0.04872   0.05149
     Eigenvalues ---    0.05725   0.05819   0.05896   0.05991   0.06134
     Eigenvalues ---    0.06173   0.08753   0.09205   0.11645   0.12243
     Eigenvalues ---    0.12750   0.12907   0.13194   0.13493   0.15363
     Eigenvalues ---    0.15634   0.16274   0.17166   0.17557   0.17875
     Eigenvalues ---    0.18184   0.19436   0.20254   0.21582   0.23251
     Eigenvalues ---    0.24756   0.27585   0.28708   0.31154   0.32950
     Eigenvalues ---    0.33187   0.33721   0.33860   0.34109   0.34912
     Eigenvalues ---    0.35031   0.35049   0.35273   0.36317   0.38863
     Eigenvalues ---    0.41054   0.44450   0.44534   0.44980   0.47280
     Eigenvalues ---    0.48749   0.70001   0.73094
 Eigenvectors required to have negative eigenvalues:
                          R6        R7        D6        D9        R8
   1                   -0.88222   0.18651  -0.15806  -0.13297   0.12041
                          R2        D10       D3        A11       A10
   1                    0.10740   0.09810  -0.08383   0.08308   0.07317
 RFO step:  Lambda0=1.592788401D-11 Lambda= 0.00000000D+00.
 Linear search not attempted -- option 19 set.
 Iteration  1 RMS(Cart)=  0.00030328 RMS(Int)=  0.00000007
 Iteration  2 RMS(Cart)=  0.00000007 RMS(Int)=  0.00000000
 Variable       Old X    -DE/DX   Delta X   Delta X   Delta X     New X
                                 (Linear)    (Quad)   (Total)
    R1        2.75064   0.00000   0.00000   0.00001   0.00001   2.75065
    R2        2.63520  -0.00000   0.00000  -0.00000  -0.00000   2.63520
    R3        2.86654  -0.00000   0.00000   0.00000   0.00000   2.86654
    R4        2.34885   0.00000   0.00000   0.00000   0.00000   2.34885
    R5        2.57710   0.00000   0.00000   0.00001   0.00001   2.57711
    R6        3.28223   0.00000   0.00000   0.00002   0.00002   3.28225
    R7        3.45446   0.00000   0.00000   0.00007   0.00007   3.45454
    R8        3.72427  -0.00001   0.00000  -0.00012  -0.00012   3.72415
    R9        2.05392   0.00000   0.00000   0.00000   0.00000   2.05392
   R10        2.05465   0.00000   0.00000   0.00001   0.00001   2.05466
   R11        2.05783  -0.00000   0.00000  -0.00001  -0.00001   2.05782
   R12        2.76926  -0.00001   0.00000  -0.00002  -0.00002   2.76924
   R13        1.92150  -0.00000   0.00000  -0.00001  -0.00001   1.92150
   R14        1.92199   0.00000   0.00000   0.00000   0.00000   1.92200
   R15        2.06454  -0.00000   0.00000   0.00001   0.00001   2.06454
   R16        2.06925  -0.00000   0.00000  -0.00001  -0.00001   2.06924
   R17        2.05588   0.00000   0.00000  -0.00000  -0.00000   2.05588
   R18        2.72739   0.00000   0.00000   0.00001   0.00001   2.72740
   R19        1.89126  -0.00001   0.00000  -0.00001  -0.00001   1.89124
   R20        2.05706   0.00000   0.00000   0.00000   0.00000   2.05706
   R21        2.06197   0.00000   0.00000   0.00001   0.00001   2.06197
   R22        2.06562   0.00000   0.00000   0.00000   0.00000   2.06562
    A1        2.24234   0.00000   0.00000   0.00004   0.00004   2.24238
    A2        1.99938   0.00000   0.00000   0.00002   0.00002   1.99940
    A3        2.04147  -0.00000   0.00000  -0.00006  -0.00006   2.04140
    A4        2.10321   0.00000   0.00000   0.00001   0.00001   2.10322
    A5        2.12268   0.00000   0.00000   0.00002   0.00002   2.12270
    A6        2.05653  -0.00000   0.00000  -0.00003  -0.00003   2.05650
    A7        2.00548   0.00000   0.00000  -0.00001  -0.00001   2.00547
    A8        2.00846  -0.00000   0.00000  -0.00001  -0.00001   2.00845
    A9        2.11054  -0.00000   0.00000   0.00002   0.00002   2.11056
   A10        1.68446  -0.00000   0.00000  -0.00003  -0.00003   1.68443
   A11        1.74697  -0.00000   0.00000   0.00003   0.00003   1.74700
   A12        1.84496   0.00000   0.00000   0.00001   0.00001   1.84497
   A13        1.91408   0.00000   0.00000   0.00000   0.00000   1.91408
   A14        1.92339   0.00000   0.00000  -0.00001  -0.00001   1.92339
   A15        1.90765  -0.00000   0.00000  -0.00000  -0.00000   1.90764
   A16        1.91933   0.00000   0.00000   0.00000   0.00000   1.91933
   A17        1.91686  -0.00000   0.00000  -0.00000  -0.00000   1.91686
   A18        1.88227   0.00000   0.00000   0.00000   0.00000   1.88227
   A19        1.97369  -0.00000   0.00000  -0.00003  -0.00003   1.97365
   A20        1.80660   0.00000   0.00000   0.00002   0.00002   1.80662
   A21        1.91713  -0.00000   0.00000  -0.00003  -0.00003   1.91710
   A22        1.92530   0.00000   0.00000   0.00003   0.00003   1.92533
   A23        1.95706   0.00000   0.00000   0.00002   0.00002   1.95708
   A24        1.87590  -0.00000   0.00000  -0.00000  -0.00000   1.87590
   A25        1.96384   0.00000   0.00000   0.00001   0.00001   1.96385
   A26        1.97328  -0.00000   0.00000  -0.00001  -0.00001   1.97327
   A27        1.90143  -0.00000   0.00000  -0.00002  -0.00002   1.90141
   A28        1.86781   0.00000   0.00000   0.00000   0.00000   1.86781
   A29        1.87830  -0.00000   0.00000  -0.00000  -0.00000   1.87829
   A30        1.87488   0.00000   0.00000   0.00002   0.00002   1.87491
   A31        2.12001  -0.00000   0.00000  -0.00004  -0.00004   2.11997
   A32        2.09438   0.00000   0.00000  -0.00000  -0.00000   2.09437
   A33        2.04840   0.00000   0.00000  -0.00000  -0.00000   2.04839
   A34        1.89201  -0.00000   0.00000  -0.00001  -0.00001   1.89201
   A35        1.94283   0.00000   0.00000   0.00002   0.00002   1.94285
   A36        1.95314   0.00000   0.00000  -0.00001  -0.00001   1.95313
   A37        1.89416   0.00000   0.00000  -0.00000  -0.00000   1.89416
   A38        1.89671  -0.00000   0.00000   0.00001   0.00001   1.89672
   A39        1.88372  -0.00000   0.00000  -0.00000  -0.00000   1.88372
    D1       -2.86236  -0.00000   0.00000  -0.00025  -0.00025  -2.86261
    D2        0.32209  -0.00000   0.00000  -0.00023  -0.00023   0.32187
    D3        0.28133  -0.00000   0.00000   0.00000   0.00000   0.28133
    D4       -2.81740  -0.00000   0.00000   0.00002   0.00002  -2.81738
    D5       -1.73204  -0.00000   0.00000  -0.00001  -0.00001  -1.73205
    D6        2.61708  -0.00000   0.00000   0.00005   0.00005   2.61713
    D7        0.36630  -0.00000   0.00000   0.00003   0.00003   0.36633
    D8        1.40741  -0.00000   0.00000  -0.00026  -0.00026   1.40714
    D9       -0.52665  -0.00000   0.00000  -0.00021  -0.00021  -0.52686
   D10       -2.77743  -0.00000   0.00000  -0.00022  -0.00022  -2.77766
   D11        2.47269  -0.00000   0.00000  -0.00055  -0.00055   2.47214
   D12       -1.69185  -0.00000   0.00000  -0.00055  -0.00055  -1.69239
   D13        0.39125  -0.00000   0.00000  -0.00054  -0.00054   0.39071
   D14       -0.66706  -0.00000   0.00000  -0.00033  -0.00033  -0.66739
   D15        1.45159  -0.00000   0.00000  -0.00033  -0.00033   1.45126
   D16       -2.74850  -0.00000   0.00000  -0.00032  -0.00032  -2.74882
   D17       -2.99528  -0.00000   0.00000   0.00004   0.00004  -2.99524
   D18       -0.07503  -0.00000   0.00000  -0.00020  -0.00020  -0.07523
   D19        0.18807  -0.00000   0.00000   0.00007   0.00007   0.18813
   D20        3.10832  -0.00000   0.00000  -0.00018  -0.00018   3.10814
   D21        0.93029  -0.00000   0.00000  -0.00002  -0.00002   0.93027
   D22       -1.15315  -0.00000   0.00000  -0.00005  -0.00005  -1.15320
   D23        3.13113  -0.00000   0.00000  -0.00004  -0.00004   3.13108
   D24        3.05183  -0.00000   0.00000  -0.00006  -0.00006   3.05177
   D25        0.96839  -0.00000   0.00000  -0.00009  -0.00009   0.96830
   D26       -1.03052  -0.00000   0.00000  -0.00008  -0.00008  -1.03061
   D27       -1.35890  -0.00000   0.00000  -0.00006  -0.00006  -1.35895
   D28        2.84085  -0.00000   0.00000  -0.00008  -0.00008   2.84076
   D29        0.84194   0.00000   0.00000  -0.00008  -0.00008   0.84186
   D30        1.28332  -0.00000   0.00000  -0.00007  -0.00007   1.28325
   D31       -2.98618  -0.00000   0.00000  -0.00005  -0.00005  -2.98623
   D32       -0.89603   0.00000   0.00000  -0.00002  -0.00002  -0.89605
   D33       -2.89926  -0.00000   0.00000  -0.00007  -0.00007  -2.89933
   D34       -0.88557  -0.00000   0.00000  -0.00005  -0.00005  -0.88562
   D35        1.20458   0.00000   0.00000  -0.00002  -0.00002   1.20456
   D36       -0.80778  -0.00000   0.00000  -0.00007  -0.00007  -0.80784
   D37        1.20591  -0.00000   0.00000  -0.00004  -0.00004   1.20587
   D38       -2.98712  -0.00000   0.00000  -0.00002  -0.00002  -2.98714
   D39        3.08709  -0.00000   0.00000  -0.00049  -0.00049   3.08659
   D40       -1.11400  -0.00000   0.00000  -0.00049  -0.00049  -1.11449
   D41        0.99557  -0.00000   0.00000  -0.00049  -0.00049   0.99508
   D42        0.16125   0.00000   0.00000  -0.00025  -0.00025   0.16100
   D43        2.24335   0.00000   0.00000  -0.00025  -0.00025   2.24310
   D44       -1.93027   0.00000   0.00000  -0.00025  -0.00025  -1.93052
         Item               Value     Threshold  Converged?
 Maximum Force            0.000007     0.000450     YES
 RMS     Force            0.000002     0.000300     YES
 Maximum Displacement     0.001186     0.001800     YES
 RMS     Displacement     0.000303     0.001200     YES
 Predicted change in Energy=-3.830967D-09
 Optimization completed.
    -- Stationary point found.
                           ----------------------------
                           !   Optimized Parameters   !
                           ! (Angstroms and Degrees)  !
 --------------------------                            --------------------------
 ! Name  Definition              Value          Derivative Info.                !
 --------------------------------------------------------------------------------
 ! R1    R(1,2)                  1.4556         -DE/DX =    0.0                 !
 ! R2    R(1,4)                  1.3945         -DE/DX =    0.0                 !
 ! R3    R(1,14)                 1.5169         -DE/DX =    0.0                 !
 ! R4    R(2,3)                  1.243          -DE/DX =    0.0                 !
 ! R5    R(2,18)                 1.3637         -DE/DX =    0.0                 !
 ! R6    R(4,9)                  1.7369         -DE/DX =    0.0                 !
 ! R7    R(4,12)                 1.828          -DE/DX =    0.0                 !
 ! R8    R(4,13)                 1.9708         -DE/DX =    0.0                 !
 ! R9    R(5,6)                  1.0869         -DE/DX =    0.0                 !
 ! R10   R(5,7)                  1.0873         -DE/DX =    0.0                 !
 ! R11   R(5,8)                  1.089          -DE/DX =    0.0                 !
 ! R12   R(5,9)                  1.4654         -DE/DX =    0.0                 !
 ! R13   R(9,10)                 1.0168         -DE/DX =    0.0                 !
 ! R14   R(9,11)                 1.0171         -DE/DX =    0.0                 !
 ! R15   R(14,15)                1.0925         -DE/DX =    0.0                 !
 ! R16   R(14,16)                1.095          -DE/DX =    0.0                 !
 ! R17   R(14,17)                1.0879         -DE/DX =    0.0                 !
 ! R18   R(18,19)                1.4433         -DE/DX =    0.0                 !
 ! R19   R(18,20)                1.0008         -DE/DX =    0.0                 !
 ! R20   R(19,21)                1.0885         -DE/DX =    0.0                 !
 ! R21   R(19,22)                1.0911         -DE/DX =    0.0                 !
 ! R22   R(19,23)                1.0931         -DE/DX =    0.0                 !
 ! A1    A(2,1,4)              128.4765         -DE/DX =    0.0                 !
 ! A2    A(2,1,14)             114.5559         -DE/DX =    0.0                 !
 ! A3    A(4,1,14)             116.9675         -DE/DX =    0.0                 !
 ! A4    A(1,2,3)              120.5052         -DE/DX =    0.0                 !
 ! A5    A(1,2,18)             121.6204         -DE/DX =    0.0                 !
 ! A6    A(3,2,18)             117.8307         -DE/DX =    0.0                 !
 ! A7    A(1,4,9)              114.9057         -DE/DX =    0.0                 !
 ! A8    A(1,4,12)             115.0762         -DE/DX =    0.0                 !
 ! A9    A(1,4,13)             120.9252         -DE/DX =    0.0                 !
 ! A10   A(9,4,12)              96.5124         -DE/DX =    0.0                 !
 ! A11   A(9,4,13)             100.094          -DE/DX =    0.0                 !
 ! A12   A(12,4,13)            105.7086         -DE/DX =    0.0                 !
 ! A13   A(6,5,7)              109.6687         -DE/DX =    0.0                 !
 ! A14   A(6,5,8)              110.2022         -DE/DX =    0.0                 !
 ! A15   A(6,5,9)              109.3001         -DE/DX =    0.0                 !
 ! A16   A(7,5,8)              109.9694         -DE/DX =    0.0                 !
 ! A17   A(7,5,9)              109.828          -DE/DX =    0.0                 !
 ! A18   A(8,5,9)              107.8459         -DE/DX =    0.0                 !
 ! A19   A(4,9,5)              113.084          -DE/DX =    0.0                 !
 ! A20   A(4,9,10)             103.5105         -DE/DX =    0.0                 !
 ! A21   A(4,9,11)             109.8434         -DE/DX =    0.0                 !
 ! A22   A(5,9,10)             110.3116         -DE/DX =    0.0                 !
 ! A23   A(5,9,11)             112.131          -DE/DX =    0.0                 !
 ! A24   A(10,9,11)            107.4814         -DE/DX =    0.0                 !
 ! A25   A(1,14,15)            112.5199         -DE/DX =    0.0                 !
 ! A26   A(1,14,16)            113.0606         -DE/DX =    0.0                 !
 ! A27   A(1,14,17)            108.944          -DE/DX =    0.0                 !
 ! A28   A(15,14,16)           107.0177         -DE/DX =    0.0                 !
 ! A29   A(15,14,17)           107.6184         -DE/DX =    0.0                 !
 ! A30   A(16,14,17)           107.4229         -DE/DX =    0.0                 !
 ! A31   A(2,18,19)            121.4676         -DE/DX =    0.0                 !
 ! A32   A(2,18,20)            119.999          -DE/DX =    0.0                 !
 ! A33   A(19,18,20)           117.3645         -DE/DX =    0.0                 !
 ! A34   A(18,19,21)           108.4043         -DE/DX =    0.0                 !
 ! A35   A(18,19,22)           111.3162         -DE/DX =    0.0                 !
 ! A36   A(18,19,23)           111.9068         -DE/DX =    0.0                 !
 ! A37   A(21,19,22)           108.5273         -DE/DX =    0.0                 !
 ! A38   A(21,19,23)           108.6737         -DE/DX =    0.0                 !
 ! A39   A(22,19,23)           107.9291         -DE/DX =    0.0                 !
 ! D1    D(4,1,2,3)           -164.001          -DE/DX =    0.0                 !
 ! D2    D(4,1,2,18)            18.4547         -DE/DX =    0.0                 !
 ! D3    D(14,1,2,3)            16.1191         -DE/DX =    0.0                 !
 ! D4    D(14,1,2,18)         -161.4253         -DE/DX =    0.0                 !
 ! D5    D(2,1,4,9)            -99.2389         -DE/DX =    0.0                 !
 ! D6    D(2,1,4,12)           149.9479         -DE/DX =    0.0                 !
 ! D7    D(2,1,4,13)            20.9874         -DE/DX =    0.0                 !
 ! D8    D(14,1,4,9)            80.6386         -DE/DX =    0.0                 !
 ! D9    D(14,1,4,12)          -30.1746         -DE/DX =    0.0                 !
 ! D10   D(14,1,4,13)         -159.1352         -DE/DX =    0.0                 !
 ! D11   D(2,1,14,15)          141.6748         -DE/DX =    0.0                 !
 ! D12   D(2,1,14,16)          -96.9356         -DE/DX =    0.0                 !
 ! D13   D(2,1,14,17)           22.4172         -DE/DX =    0.0                 !
 ! D14   D(4,1,14,15)          -38.2198         -DE/DX =    0.0                 !
 ! D15   D(4,1,14,16)           83.1699         -DE/DX =    0.0                 !
 ! D16   D(4,1,14,17)         -157.4774         -DE/DX =    0.0                 !
 ! D17   D(1,2,18,19)         -171.617          -DE/DX =    0.0                 !
 ! D18   D(1,2,18,20)           -4.2989         -DE/DX =    0.0                 !
 ! D19   D(3,2,18,19)           10.7754         -DE/DX =    0.0                 !
 ! D20   D(3,2,18,20)          178.0935         -DE/DX =    0.0                 !
 ! D21   D(1,4,9,5)             53.3018         -DE/DX =    0.0                 !
 ! D22   D(1,4,9,10)           -66.0706         -DE/DX =    0.0                 !
 ! D23   D(1,4,9,11)           179.4003         -DE/DX =    0.0                 !
 ! D24   D(12,4,9,5)           174.8569         -DE/DX =    0.0                 !
 ! D25   D(12,4,9,10)           55.4845         -DE/DX =    0.0                 !
 ! D26   D(12,4,9,11)          -59.0447         -DE/DX =    0.0                 !
 ! D27   D(13,4,9,5)           -77.8591         -DE/DX =    0.0                 !
 ! D28   D(13,4,9,10)          162.7685         -DE/DX =    0.0                 !
 ! D29   D(13,4,9,11)           48.2394         -DE/DX =    0.0                 !
 ! D30   D(6,5,9,4)             73.5287         -DE/DX =    0.0                 !
 ! D31   D(6,5,9,10)          -171.0956         -DE/DX =    0.0                 !
 ! D32   D(6,5,9,11)           -51.3386         -DE/DX =    0.0                 !
 ! D33   D(7,5,9,4)           -166.1154         -DE/DX =    0.0                 !
 ! D34   D(7,5,9,10)           -50.7397         -DE/DX =    0.0                 !
 ! D35   D(7,5,9,11)            69.0173         -DE/DX =    0.0                 !
 ! D36   D(8,5,9,4)            -46.2822         -DE/DX =    0.0                 !
 ! D37   D(8,5,9,10)            69.0936         -DE/DX =    0.0                 !
 ! D38   D(8,5,9,11)          -171.1494         -DE/DX =    0.0                 !
 ! D39   D(2,18,19,21)         176.8772         -DE/DX =    0.0                 !
 ! D40   D(2,18,19,22)         -63.8272         -DE/DX =    0.0                 !
 ! D41   D(2,18,19,23)          57.042          -DE/DX =    0.0                 !
 ! D42   D(20,18,19,21)          9.239          -DE/DX =    0.0                 !
 ! D43   D(20,18,19,22)        128.5345         -DE/DX =    0.0                 !
 ! D44   D(20,18,19,23)       -110.5962         -DE/DX =    0.0                 !
 --------------------------------------------------------------------------------
 GradGradGradGradGradGradGradGradGradGradGradGradGradGradGradGradGradGrad

                          Input orientation:                          
 ---------------------------------------------------------------------
 Center     Atomic      Atomic             Coordinates (Angstroms)
 Number     Number       Type             X           Y           Z
 ---------------------------------------------------------------------
      1          6           0       -0.372210    1.151400   -0.109600
      2          6           0       -1.768120    0.746420   -0.187890
      3          8           0       -2.637250    1.548410   -0.570470
      4          6           0        0.760640    0.344940   -0.005330
      5          6           0        0.395360   -0.253990    2.576920
      6          1           0        0.178180   -1.307410    2.420500
      7          1           0        0.771550   -0.103790    3.585920
      8          1           0       -0.502720    0.342130    2.422270
      9          7           0        1.398280    0.183710    1.602210
     10          1           0        1.721050    1.121860    1.824940
     11          1           0        2.212960   -0.425070    1.591030
     12         17           0        2.275310    1.035260   -0.760910
     13         35           0        0.709100   -1.548960   -0.548040
     14          6           0       -0.147970    2.651210   -0.145610
     15          1           0        0.654040    2.970580    0.523980
     16          1           0        0.101230    3.023770   -1.144670
     17          1           0       -1.060260    3.152420    0.170770
     18          7           0       -2.174690   -0.496690    0.198340
     19          6           0       -3.520380   -0.958490   -0.044330
     20          1           0       -1.499390   -1.177440    0.484990
     21          1           0       -3.596690   -1.989420    0.296690
     22          1           0       -4.250200   -0.357990    0.500980
     23          1           0       -3.779310   -0.920850   -1.105630
 ---------------------------------------------------------------------
                    Distance matrix (angstroms):
                    1          2          3          4          5
     1  C    0.000000
     2  C    1.455576   0.000000
     3  O    2.345298   1.242957   0.000000
     4  C    1.394489   2.566932   3.648750   0.000000
     5  C    3.127567   3.650430   4.727730   2.675848   0.000000
     6  H    3.570726   3.848376   5.002825   2.992352   1.086889
     7  H    4.067008   4.627572   5.623634   3.619192   1.087272
     8  H    2.661262   2.928758   3.868827   2.736664   1.088955
     9  N    2.646007   3.680651   4.782096   1.736884   1.465431
    10  H    2.850448   4.045584   4.991464   2.208140   2.053264
    11  H    3.472824   4.515080   5.664913   2.291400   2.074829
    12  Cl   2.728929   4.094033   4.942958   1.828023   4.041966
    13  Br   2.941667   3.396336   4.559853   1.970799   3.397169
    14  C    1.516908   2.500980   2.755574   2.482767   4.018403
    15  H    2.182665   3.364596   3.748730   2.680582   3.831361
    16  H    2.191183   3.097777   3.163173   2.984803   4.967943
    17  H    2.134503   2.533484   2.368371   3.350915   4.417241
    18  N    2.461699   1.363743   2.233263   3.060390   3.510228
    19  C    3.790365   2.449029   2.709481   4.475219   4.764482
    20  H    2.654726   2.055777   3.136715   2.768716   2.969682
    21  H    4.519634   3.326155   3.766793   4.952452   4.914024
    22  H    4.205933   2.802675   2.717347   5.085172   5.089359
    23  H    4.110307   2.768921   2.772714   4.839838   5.606581
                    6          7          8          9         10
     6  H    0.000000
     7  H    1.777356   0.000000
     8  H    1.784548   1.782327   0.000000
     9  N    2.093247   2.100131   2.076390   0.000000
    10  H    2.938791   2.346235   2.431036   1.016816   0.000000
    11  H    2.367884   2.482029   2.941849   1.017075   1.640025
    12  Cl   4.472966   4.738529   4.281415   2.660574   2.646001
    13  Br   3.025302   4.379731   3.723905   2.846171   3.713268
    14  C    4.728844   4.728621   3.471557   3.396221   3.116924
    15  H    4.703661   4.340626   3.442433   3.079467   2.499755
    16  H    5.610301   5.710468   4.503222   4.158561   3.880678
    17  H    5.146368   5.061786   3.643876   4.111773   3.820358
    18  N    3.336354   4.506706   2.906023   3.898706   4.521319
    19  C    4.458304   5.685938   4.108771   5.311208   5.940927
    20  H    2.564631   3.990697   2.656219   3.390782   4.177736
    21  H    4.384672   5.784130   4.418921   5.601482   6.347753
    22  H    4.918994   5.899105   4.269090   5.780266   6.292746
    23  H    5.314579   6.586999   4.977674   5.946418   6.558572
                   11         12         13         14         15
    11  H    0.000000
    12  Cl   2.769129   0.000000
    13  Br   2.846110   3.029277   0.000000
    14  C    4.248930   2.976940   4.305572   0.000000
    15  H    3.885777   2.832829   4.645266   1.092505   0.000000
    16  H    4.882413   2.971206   4.651380   1.094999   1.758642
    17  H    5.052677   4.059116   5.074475   1.087925   1.759729
    18  N    4.603932   4.803075   3.159209   3.759677   4.486615
    19  C    5.985827   6.170782   4.300102   4.940986   5.760759
    20  H    3.946001   4.549359   2.466294   4.108838   4.673848
    21  H    6.154229   6.689364   4.409921   5.798685   6.536204
    22  H    6.554780   6.790861   5.207063   5.128514   5.927181
    23  H    6.589770   6.372097   4.566317   5.183424   6.119922
                   16         17         18         19         20
    16  H    0.000000
    17  H    1.759543   0.000000
    18  N    4.401946   3.815589   0.000000
    19  C    5.494106   4.795627   1.443270   0.000000
    20  H    4.782044   4.363400   1.000809   2.100600   0.000000
    21  H    6.394076   5.734793   2.063977   1.088547   2.256864
    22  H    5.751470   4.754759   2.102040   1.091146   2.870315
    23  H    5.533547   5.061023   2.110700   1.093078   2.791764
                   21         22         23
    21  H    0.000000
    22  H    1.769286   0.000000
    23  H    1.772482   1.766280   0.000000
 Stoichiometry    C6H12BrClN2O
 Framework group  C1[X(C6H12BrClN2O)]
 Deg. of freedom    63
 Full point group                 C1      NOp   1
 Largest Abelian subgroup         C1      NOp   1
 Largest concise Abelian subgroup C1      NOp   1
                         Standard orientation:                         
 ---------------------------------------------------------------------
 Center     Atomic      Atomic             Coordinates (Angstroms)
 Number     Number       Type             X           Y           Z
 ---------------------------------------------------------------------
      1          6           0       -0.372214    1.151400   -0.109600
      2          6           0       -1.768123    0.746417   -0.187890
      3          8           0       -2.637255    1.548406   -0.570470
      4          6           0        0.760637    0.344942   -0.005330
      5          6           0        0.395358   -0.253989    2.576920
      6          1           0        0.178180   -1.307409    2.420500
      7          1           0        0.771548   -0.103788    3.585920
      8          1           0       -0.502723    0.342129    2.422270
      9          7           0        1.398278    0.183713    1.602210
     10          1           0        1.721046    1.121863    1.824940
     11          1           0        2.212959   -0.425066    1.591030
     12         17           0        2.275306    1.035264   -0.760910
     13         35           0        0.709101   -1.548959   -0.548040
     14          6           0       -0.147977    2.651210   -0.145610
     15          1           0        0.654033    2.970581    0.523980
     16          1           0        0.101223    3.023770   -1.144670
[...]
 11,-0.00297601,0.00413181,-0.00430345,0.00137837,0.01320638,-0.0305042
 8,0.00047764,-0.00060547,-0.00001850,0.00003934,-0.00007169,0.00007811
 ,0.00000890,0.00003660,0.00008428,-0.00007106,-0.00001795,-0.00029231,
 0.00046221,-0.00245929,0.00242450,-0.00141764,0.00009648,0.00059914,0.
 00008354,-0.00024234,0.00024130,-0.00114692,-0.00102359,-0.00342034,-0
 .00086142,-0.00006485,0.00276994,0.00078987,-0.01397543,0.46605939,-0.
 00564529,0.01126245,-0.05646456,0.00164989,0.00016733,0.00290564,-0.00
 237973,-0.00353616,-0.00262915,0.01335636,0.00956728,0.00145341,-0.000
 07398,-0.00037899,0.00032311,0.00013083,-0.00008417,0.00001888,-0.0000
 4095,0.00002233,-0.00000045,0.00001512,0.00038237,-0.00005070,-0.00344
 569,-0.00156757,-0.00255695,-0.00062910,0.00070673,-0.00086155,-0.0001
 2339,-0.00046194,-0.00012879,-0.00720390,-0.00508533,0.00133549,0.0012
 2759,-0.00946216,0.00082382,0.00044310,0.00378775,0.53384803,-0.001257
 85,-0.00081907,0.00020134,-0.00117349,0.00071166,-0.00114486,-0.001105
 05,-0.00271358,-0.00003869,-0.00210498,0.00184773,0.00105345,0.0001230
 2,-0.00011092,0.00008795,-0.00000496,0.00000454,-0.00000916,0.00000167
 ,-0.00002566,0.00000410,-0.00002832,0.00002475,-0.00008683,0.00049163,
 -0.00047796,-0.00004417,0.00012995,0.00020662,-0.00017744,0.00014234,-
 0.00013938,0.00030907,-0.00027850,0.00230566,0.00111735,0.00019516,-0.
 00052766,-0.00012560,-0.18772074,-0.05277204,-0.12046208,0.20426852,-0
 .02267735,-0.01226150,-0.01712267,0.00400208,-0.00453359,-0.00131196,-
 0.00022767,0.00169199,-0.00030037,-0.00445123,0.00170215,-0.00255299,0
 .00012611,0.00006652,0.00009606,0.00002923,0.00001609,-0.00005301,-0.0
 0004044,0.00000265,0.00001398,-0.00006645,0.00001812,-0.00010992,0.001
 01864,-0.00071890,0.00183202,0.00092839,-0.00113475,0.00079924,0.00013
 544,0.00017105,0.00018405,0.00057101,-0.00039900,-0.00024999,0.0001509
 4,-0.00086474,0.00030159,-0.05299959,-0.06541435,-0.04458617,0.0585610
 9,0.07598198,0.00394465,-0.00044657,0.00332755,0.00069701,0.00042342,-
 0.00049291,0.00035241,0.00049382,0.00029376,-0.00255814,0.00019875,0.0
 0081204,0.00009841,-0.00009560,0.00002177,0.00002657,-0.00001481,-0.00
 000015,-0.00000591,-0.00001464,-0.00000821,0.00001896,0.00004767,-0.00
 006097,0.00074474,-0.00029788,0.00028031,-0.00017760,0.00009503,0.0001
 4174,0.00011390,-0.00019021,0.00030629,0.00063845,0.00065716,-0.000172
 20,0.00012155,-0.00030222,-0.00008896,-0.11979999,-0.04364211,-0.14656
 866,0.13195541,0.04637349,0.15496234,-0.00004497,-0.00329716,0.0027611
 1,0.00060432,-0.00092628,0.00078631,0.00067710,0.00044525,-0.00030242,
 -0.00137760,0.00165304,-0.00076160,0.00009524,-0.00002677,0.00004004,0
 .00000360,0.00000206,-0.00001089,-0.00001478,-0.00001773,0.00001486,-0
 .00002151,0.00000706,-0.00007213,0.00042206,-0.00066238,0.00029084,0.0
 0014990,-0.00021201,0.00006666,0.00010277,-0.00001270,0.00025253,-0.00
 013781,0.00064895,0.00001277,-0.00001999,-0.00056778,0.00008715,-0.059
 16282,-0.01713868,0.05329754,0.00500888,0.00740016,-0.02319666,0.05938
 656,-0.00515695,-0.02147990,0.02589270,0.00353477,-0.00156162,0.000929
 13,-0.00133173,0.00110833,0.00002241,-0.01090014,0.00062308,-0.0007173
 1,0.00036341,0.00018887,-0.00018715,-0.00005147,0.00000144,-0.00002168
 ,-0.00001245,-0.00002687,0.00005765,-0.00003942,-0.00005742,-0.0002103
 0,0.00231424,-0.00015140,0.00219086,0.00007145,-0.00023771,0.00013251,
 0.00008480,0.00013990,0.00030489,0.00367944,0.00119263,-0.00100232,0.0
 0005541,0.00080739,-0.00022691,-0.01762881,-0.06699425,0.07659602,0.00
 223425,0.00238589,-0.00716733,0.02172704,0.08038587,-0.00019797,0.0040
 8072,0.00749437,-0.00186242,0.00005347,-0.00064805,0.00074344,-0.00023
 188,0.00015703,0.00205713,-0.00058248,0.00094535,-0.00009765,-0.000094
 77,0.00017762,0.00002860,0.00000319,-0.00000595,0.00001107,-0.00000233
 ,-0.00002709,0.00002791,0.00000684,0.00006498,-0.00074608,0.00009193,-
 0.00064130,0.00014383,-0.00009564,0.00006287,0.00009499,-0.00007980,-0
 .00014416,0.00031098,-0.00078868,-0.00013805,-0.00011396,0.00065091,-0
 .00014132,0.05205750,0.07168733,-0.26402603,0.00466481,0.00523134,-0.0
 1942467,-0.05883313,-0.08226588,0.28476896,0.00435045,-0.00155452,-0.0
 0208225,-0.00136984,-0.00136716,-0.00103947,-0.00192178,-0.00236565,-0
 .00026042,-0.00023451,-0.00027057,0.00053191,-0.00013115,-0.00000965,0
 .00000290,0.00001803,0.00000938,-0.00001049,0.00000846,0.00001059,-0.0
 0001718,0.00000196,-0.00000629,0.00004196,-0.00013959,0.00013317,-0.00
 018378,0.00012671,-0.00016092,0.00020638,0.00000970,-0.00000015,-0.000
 03555,-0.00055912,0.00074861,0.00015906,0.00016377,-0.00084467,-0.0000
 8169,-0.23980661,0.10823030,0.06987672,-0.01651519,0.00931429,0.006902
 16,-0.00520051,0.00233503,0.00128908,0.26072789,0.02446692,-0.01770703
 ,-0.00709727,0.00430457,-0.00261528,0.00149993,-0.00091278,0.00351515,
 0.00040878,-0.00172131,-0.00238951,-0.00078851,0.00006296,-0.00000227,
 0.00002464,0.00000869,0.00000383,-0.00002466,-0.00000565,-0.00000144,0
 .00001452,-0.00000408,0.00001966,-0.00004083,-0.00036322,0.00009351,-0
 .00030593,-0.00005227,-0.00004026,-0.00000896,-0.00004862,-0.00003039,
 -0.00005505,-0.00081463,0.00009057,0.00006114,0.00091816,-0.00284174,-
 0.00017378,0.10522557,-0.10048891,-0.03650481,-0.00794053,0.00397820,0
 .00397590,-0.00863551,0.00452393,0.00199858,-0.11456159,0.11343023,-0.
 00138139,0.00174982,0.00018955,0.00084016,-0.00093002,0.00148446,-0.00
 061357,0.00135362,-0.00060605,-0.00023513,0.00000219,-0.00065641,-0.00
 002814,-0.00000266,0.00007005,0.00002008,-0.00000141,-0.00001161,0.000
 00240,-0.00000348,-0.00000461,0.00000742,-0.00000162,0.00000306,-0.000
 10576,0.00005746,0.00014006,0.00012300,-0.00018947,0.00017997,0.000017
 01,0.00003034,-0.00004284,-0.00012113,0.00005933,0.00056345,-0.0000786
 2,-0.00003555,0.00015388,0.06843958,-0.03678730,-0.07070464,-0.0172109
 0,0.01065694,0.00661114,0.02572206,-0.01367020,-0.00822061,-0.07527516
 ,0.03740713,0.07111885,-0.02050267,-0.03416884,0.00850151,-0.15752502,
 -0.06563702,0.00388962,0.01455869,0.04261157,-0.01570730,0.01370961,-0
 .00864852,0.00494419,-0.00068036,-0.00031296,-0.00031814,-0.00011602,-
 0.00010334,-0.00007975,0.00022748,0.00008514,-0.00024904,-0.00049349,-
 0.00024960,-0.00008655,-0.00342843,0.00174937,-0.00335772,0.00026285,0
 .00014208,0.00020008,-0.00012104,0.00006079,-0.00065449,-0.00350928,-0
 .00073201,0.00017029,-0.00851683,0.00439278,0.00271934,-0.00553303,0.0
 0087371,-0.00002630,-0.00026608,-0.00170988,0.00006868,-0.00049272,-0.
 00136267,0.00047554,0.00043766,-0.00002176,-0.00009001,0.71653094,-0.0
 3472112,-0.00508467,0.00510896,-0.06088474,-0.25493968,0.06052841,0.02
 803218,-0.08256875,0.04280573,0.01864579,-0.01435450,0.00752263,-0.001
 05903,-0.00060098,0.00050404,0.00003715,0.00020672,-0.00011403,0.00037
 371,0.00017051,-0.00023722,-0.00026056,-0.00033723,-0.00000243,-0.0057
 7552,0.00352845,-0.00580665,0.00034569,0.00023311,0.00044903,-0.000238
 17,-0.00030232,-0.00150864,-0.00507166,-0.00081587,0.00009084,0.004086
 74,0.00336777,-0.00068554,-0.00080849,0.00151068,-0.00073802,-0.000262
 42,-0.00061115,-0.00017572,-0.00035352,-0.00086929,0.00032938,0.000367
 81,0.00034860,0.00028778,-0.05683785,0.71911752,0.01040981,-0.00006001
 ,0.01069405,0.00009726,0.04634879,-0.07008784,-0.01485260,0.04338001,0
 .00094494,-0.00654170,0.00462328,-0.00462371,0.00116336,-0.00042021,-0
 .00105650,0.00030847,-0.00043531,0.00013682,-0.00070145,0.00004120,0.0
 0005087,-0.00034497,0.00091246,-0.00004099,0.00168288,-0.00134764,0.00
 340355,-0.00011438,-0.00006743,-0.00005904,-0.00012230,-0.00014897,0.0
 0037599,0.00034470,0.00035367,0.00037970,0.00345719,-0.00193542,0.0004
 8249,-0.00043041,-0.00067180,0.00298802,-0.00013080,0.00068167,0.00008
 921,-0.00011423,-0.00049463,-0.00028235,-0.00001537,-0.00015506,-0.000
 21514,0.14668265,-0.19822687,0.14597577,0.00693641,0.00099658,-0.00169
 899,-0.01508849,-0.02758117,0.00456337,-0.00285938,0.00966424,-0.00177
 258,-0.00478395,0.00262490,-0.00179083,0.00011815,0.00026504,0.0001896
 9,-0.00011118,0.00009441,-0.00010122,0.00010375,-0.00002976,0.00012190
 ,-0.00002380,-0.00022300,-0.00032400,0.00135276,-0.00070535,0.00138824
 ,-0.00010078,-0.00008104,-0.00008223,0.00003285,0.00002546,0.00025593,
 0.00135885,0.00035960,-0.00007139,0.00058424,-0.00030017,0.00006609,0.
 00049174,-0.00005839,0.00029848,0.00016025,0.00027283,0.00006301,0.000
 12359,0.00029311,-0.00019953,-0.00002516,-0.00006457,-0.00006245,-0.23
 169592,-0.03122076,-0.03571589,0.51899687,0.00147716,-0.00260742,0.002
 03523,-0.03504132,-0.01651477,-0.00504481,-0.00394358,0.00379613,-0.00
 318954,-0.00032753,-0.00050918,-0.00027927,-0.00006843,-0.00000123,0.0
 0014590,-0.00008208,0.00010108,-0.00011403,0.00008651,0.00003453,0.000
 02552,-0.00000546,-0.00015295,-0.00008156,-0.00005011,0.00002517,-0.00
 006612,-0.00000528,-0.00002281,0.00001467,-0.00002199,-0.00003047,-0.0
 0004655,-0.00025081,0.00009799,0.00008673,0.00125138,-0.00031950,-0.00
 060188,-0.00079122,-0.00010394,0.00052516,-0.00004910,-0.00004607,0.00
 004519,-0.00007881,-0.00015542,0.00000029,-0.00004687,0.00002853,-0.00
 003643,-0.04463465,-0.11235186,0.00652740,-0.02725800,0.59602210,-0.00
 288656,0.00318768,0.00286493,0.01348152,0.00331379,0.00102421,0.001800
 86,0.00028708,-0.00416649,0.00063470,-0.00042002,0.00049810,0.00010455
 ,-0.00007282,-0.00018167,0.00001170,-0.00005270,-0.00000058,-0.0000319
 7,-0.00000729,-0.00004524,-0.00011288,0.00004480,0.00002545,-0.0003285
 1,0.00015242,-0.00034772,-0.00000123,0.00001982,0.00000059,-0.00003069
 ,-0.00003301,-0.00009065,-0.00063970,-0.00017726,0.00001447,0.00053162
 ,-0.00049845,-0.00014801,0.00097152,0.00017981,0.00098920,0.00008204,0
 .00040972,-0.00001289,-0.00003767,-0.00021317,0.00000839,-0.00010100,-
 0.00013898,-0.00005547,-0.04095165,0.00384563,-0.06498120,-0.00843648,
 -0.01918857,0.56426742,-0.00359723,0.00138964,0.00000430,0.01688640,-0
 .00085272,0.00291156,0.00124277,-0.00632636,0.00220736,0.00071141,-0.0
 0573198,0.00123081,-0.00027163,-0.00088757,-0.00016071,-0.00020273,0.0
 0044202,-0.00035154,0.00005371,0.00028553,0.00000197,-0.00022418,-0.00
 009329,-0.00027575,-0.00090436,0.00100835,-0.00067060,0.00008183,-0.00
 006035,0.00016269,-0.00020732,-0.00004266,-0.00031114,-0.00031056,0.00
 038068,-0.00005434,-0.00716009,0.00337452,0.00232835,-0.00027960,-0.00
 002554,-0.00007923,0.00003206,-0.00003982,0.00001301,-0.00001368,0.000
 06240,0.00004004,-0.00003999,0.00017670,0.00001566,-0.24851614,0.17847
 154,-0.09332456,-0.01556475,0.01843688,-0.00496855,0.26143622,-0.00008
 682,0.00020484,-0.00053922,0.02616323,-0.01357682,0.00423636,-0.002643
 57,-0.00570938,0.00377634,-0.00218275,0.00081051,0.00066899,-0.0004100
 9,0.00039546,0.00022704,0.00015283,0.00009378,0.00043263,0.00027490,-0
 .00005877,0.00006077,-0.00005946,-0.00054850,-0.00051290,0.00006378,-0
 .00042386,0.00001381,-0.00003464,-0.00001888,-0.00005281,0.00005711,0.
 00004065,0.00007861,-0.00007648,-0.00034331,-0.00003357,0.00353840,-0.
 00128277,-0.00100939,0.00020622,-0.00005544,-0.00051481,-0.00001990,0.
 00006748,0.00002360,0.00005852,0.00027177,-0.00004653,0.00001530,0.000
 08562,0.00005308,0.18066842,-0.25391091,0.09959001,-0.01205728,0.01131
 743,-0.00609583,-0.18838775,0.26220791,0.00048318,-0.00056794,-0.00127
 183,-0.00627690,0.00512671,-0.01070483,0.00094454,0.00295445,0.0069230
 5,0.00121248,0.00187825,0.00155764,-0.00073037,-0.00069421,0.00044609,
 -0.00056705,0.00087800,-0.00060494,0.00043494,0.00031234,0.00001742,-0
 .00024262,-0.00080230,-0.00066618,-0.00013163,-0.00020692,-0.00040539,
 0.00002110,-0.00000049,-0.00016767,0.00006110,0.00008472,0.00006050,-0
 .00016338,-0.00023970,-0.00012316,0.00109126,-0.00069997,-0.00071631,-
 0.00013432,0.00008810,-0.00070363,-0.00005985,-0.00023521,-0.00000222,
 0.00002378,0.00011039,-0.00002301,0.00007591,-0.00008937,-0.00000179,-
 0.08801551,0.09001523,-0.03594092,-0.00089689,0.00135635,-0.00544026,0
 .09190260,-0.09861261,0.04837680,-0.00038345,-0.00120830,0.00030866,-0
 .00602459,0.00246841,-0.00260159,0.00203676,0.00070234,0.00016876,0.00
 082527,-0.00054392,0.00021468,-0.00003608,-0.00003068,0.00000715,0.000
 00601,0.00000172,0.00000475,0.00000048,0.00000990,-0.00001346,0.000010
 92,0.00000849,0.00004191,-0.00020249,0.00012410,-0.00021658,0.00001815
 ,0.00000885,0.00001825,-0.00000637,-0.00000639,-0.00004500,-0.00024926
 ,-0.00004084,0.00002354,0.00002058,0.00014216,-0.00002823,-0.00040394,
 0.00000716,-0.00001558,-0.00003847,-0.00012262,0.00000707,-0.00003603,
 -0.00007897,0.00002924,0.00001973,0.00000932,-0.00000350,-0.00913157,-
 0.03950350,0.01170526,-0.05016868,-0.00606512,0.00162335,0.00118910,-0
 .00051560,0.00042222,0.05965844,-0.00074883,-0.00032272,0.00014811,0.0
 0001987,0.00155412,-0.00095054,-0.00129597,-0.00052416,0.00016408,0.00
 086678,-0.00051228,0.00027505,-0.00004641,-0.00003412,0.00000162,0.000
 01129,-0.00000515,0.00001370,-0.00000243,0.00000606,-0.00001539,0.0000
 0918,0.00001346,0.00004525,-0.00024972,0.00013886,-0.00027720,0.000018
 16,0.00001437,0.00001893,-0.00000485,-0.00000589,-0.00005132,-0.000257
 18,-0.00005725,0.00001470,-0.00016608,0.00010444,0.00004360,-0.0001934
 6,0.00005983,-0.00003704,-0.00005090,-0.00006177,0.00000790,-0.0000215
 8,-0.00006235,0.00003203,0.00000603,0.00004127,0.00001455,-0.00011171,
 -0.01059224,0.00328174,-0.01723311,-0.29402860,0.08120553,-0.00015522,
 0.00103620,-0.00002877,0.01996155,0.31693631,0.00001886,-0.00009865,0.
 00025186,-0.00149553,0.00016596,-0.00034130,0.00067612,0.00038817,0.00
 059174,0.00001672,0.00002659,-0.00004095,0.00001132,-0.00000095,0.0000
 1114,-0.00000163,0.00000488,0.00000200,0.00000285,0.00000322,0.0000019
 9,0.00000452,-0.00000640,-0.00000051,-0.00000063,-0.00000196,0.0000075
 9,-0.00000080,-0.00000021,-0.00000153,-0.00000233,-0.00000017,0.000000
 87,-0.00003254,-0.00000776,0.00000631,0.00000776,-0.00001598,-0.000013
 08,-0.00001509,0.00000921,0.00003444,0.00001562,0.00000419,-0.00000035
 ,0.00000031,-0.00000485,0.00000145,0.00000801,-0.00001878,-0.00000808,
 -0.00185904,-0.00830172,0.00109147,0.00533031,0.08459299,-0.07718121,0
 .00023350,-0.00014371,0.00086555,-0.00276769,-0.08984289,0.07596432,-0
 .00114189,-0.00041759,-0.00035667,0.00012158,0.00742302,-0.00255733,0.
 00217542,-0.00213078,0.00127413,0.00133757,-0.00049656,0.00045562,-0.0
 0002618,-0.00003970,-0.00001334,0.00003914,-0.00002551,0.00004461,-0.0
 0002474,0.00000309,-0.00002548,0.00002344,0.00005870,0.00008868,-0.000
 24458,0.00013085,-0.00026113,0.00002474,0.00002304,0.00002004,0.000000
 20,0.00000624,-0.00003648,-0.00028826,-0.00009894,0.00000406,-0.000551
 68,0.00031661,0.00019020,-0.00017008,0.00008125,-0.00022860,-0.0000337
 8,-0.00013069,-0.00001134,-0.00001940,-0.00004995,0.00003084,0.0000494
 0,-0.00000014,0.00001623,-0.03432195,0.01095881,0.00921795,-0.15292435
 ,0.09483753,0.08566109,-0.00306627,-0.00220252,0.00305596,0.00254907,-
 0.00111321,-0.00202058,0.18128601,-0.00048007,-0.00014355,-0.00078509,
 -0.00071302,0.00073250,0.00047208,0.00001125,-0.00076293,0.00043461,0.
 00036614,-0.00036292,0.00012365,-0.00003127,-0.00000479,0.00002195,-0.
 00000006,0.00000569,-0.00000109,0.00001255,0.00000583,-0.00000499,-0.0
 0000440,-0.00001026,-0.00000995,-0.00009325,0.00009191,-0.00011054,0.0
 0001021,0.00000483,0.00001178,-0.00000698,0.00000955,-0.00002489,0.000
 05926,-0.00000560,-0.00002663,-0.00010421,0.00017897,0.00004820,-0.000
 00573,0.00001036,-0.00006792,0.00001564,-0.00002409,0.00000243,0.00000
 786,0.00001445,0.00001149,0.00000641,-0.00000158,0.00000161,-0.0095224
 7,0.00958453,0.00834873,0.09879186,-0.13483305,-0.07880789,-0.00120567
 ,-0.00016920,-0.00016712,0.01851156,-0.01469375,-0.01626305,-0.1042344
 4,0.13915256,-0.00009482,0.00006029,-0.00031491,0.00113936,-0.00094612
 ,0.00091472,-0.00108620,-0.00018087,-0.00049321,0.00008171,-0.00001255
 ,0.00001696,-0.00003423,0.00001684,0.00000972,0.00000154,-0.00000008,0
 .00000401,0.00000676,-0.00000537,0.00000217,0.00000088,-0.00001268,-0.
 00000303,-0.00001209,0.00001113,-0.00005430,0.00000167,0.00000240,0.00
 000021,0.00000740,0.00000345,-0.00000162,0.00001054,0.00000714,-0.0000
 0004,-0.00009243,0.00004861,0.00002371,0.00000066,0.00001196,-0.000033
 55,-0.00000922,-0.00000369,0.00000147,0.00000396,0.00000450,0.00000486
 ,0.00000692,0.00001698,0.00001041,-0.00581766,0.00769536,0.00776030,0.
 08814003,-0.07851459,-0.11984209,-0.00122827,-0.00039982,-0.00029220,-
 0.00832183,0.00616523,0.00604661,-0.09236231,0.08505088,0.12286289,-0.
 00243191,0.00019144,0.00079381,0.00194700,0.00732311,-0.00296805,0.001
 30009,-0.00177759,0.00088347,0.00182815,-0.00103799,0.00066599,-0.0000
 0667,-0.00009108,-0.00009850,0.00004560,-0.00004981,0.00004110,-0.0000
 4353,0.00000520,-0.00004856,-0.00001168,0.00008894,0.00012020,-0.00049
 540,0.00028621,-0.00048108,0.00003351,0.00003265,0.00003614,-0.0000185
 6,-0.00001691,-0.00010562,-0.00058468,-0.00016059,0.00002411,-0.000067
 36,0.00016359,0.00005160,-0.00002356,0.00015689,0.00005819,-0.00002609
 ,-0.00004447,-0.00001634,-0.00003219,-0.00014280,0.00004575,0.00002967
 ,-0.00002623,0.00000217,-0.02087667,-0.00432206,-0.03266087,-0.0569130
 0,0.00263088,-0.04637606,-0.00127497,-0.00252185,-0.00251055,0.0003464
 1,0.00075780,0.00186997,0.00520661,-0.00139119,0.01965763,0.07206922,-
 0.00107337,0.00023158,0.00048029,-0.00038794,0.00279769,-0.00243108,0.
 00127616,0.00053107,0.00041822,0.00072321,-0.00041666,0.00035414,-0.00
 000601,-0.00002379,-0.00001089,0.00000242,-0.00000835,0.00000510,0.000
 00048,0.00000366,-0.00001503,-0.00000476,0.00000715,0.00002811,-0.0001
 7204,0.00009020,-0.00017988,0.00000895,0.00001014,0.00000979,-0.000012
 12,-0.00000232,-0.00003393,-0.00030120,-0.00009108,0.00000183,0.000033
 18,0.00005424,-0.00002380,0.00002196,0.00008356,0.00000769,-0.00000280
 ,-0.00001221,0.00000273,0.00000096,-0.00004732,0.00001049,0.00001113,-
 0.00004068,-0.00001569,-0.00653059,-0.00072843,-0.01012560,0.00342455,
 -0.04974568,0.01305970,-0.00021931,-0.00043379,-0.00045992,0.00616037,
 0.00099536,0.02951188,-0.00289911,0.00122055,-0.01901902,-0.00005415,0
 .04552512,-0.00092562,-0.00037093,-0.00024327,0.00002802,0.00489055,-0
 .00040500,0.00162024,-0.00127912,0.00069754,0.00096096,-0.00053628,0.0
 0028353,-0.00002486,-0.00003530,-0.00002510,0.00001993,-0.00001602,0.0
 0001844,-0.00000897,0.00000445,-0.00002009,0.00000337,0.00002954,0.000
 05403,-0.00026700,0.00015275,-0.00027322,0.00001990,0.00001555,0.00001
 590,-0.00000760,0.00000288,-0.00005312,-0.00013552,-0.00004655,-0.0000
 0445,-0.00011854,0.00013272,0.00000889,-0.00008044,0.00001945,0.000008
 63,0.00000846,-0.00005829,-0.00001543,-0.00003118,-0.00005932,0.000036
 69,0.00000133,-0.00000562,0.00000236,-0.01043875,-0.00338617,0.0029144
 9,-0.04926458,0.01180793,-0.29719930,0.00037283,-0.00120003,-0.0011827
 2,-0.00056135,-0.00022885,-0.00729035,-0.00218616,0.00174176,-0.016623
 08,0.06101552,-0.01157511,0.31929461\\-0.00000090,-0.00000031,0.000002
 41,-0.00000221,0.00000083,0.00000122,0.00000401,-0.00000121,-0.0000024
 3,0.00000206,0.00000156,-0.00000204,0.00000147,0.00000219,0.00000915,-
 0.00000079,0.00000519,0.00000485,-0.00000033,0.00000682,-0.00000217,-0
 .00000084,0.00000551,-0.00000086,0.00000308,-0.00000154,-0.00000768,0.
 00000181,0.00000370,-0.00000206,-0.00000228,0.00000101,0.00000179,-0.0
 0000182,-0.00000861,-0.00000362,-0.00000263,-0.00001173,0.00000227,-0.
 00000269,-0.00000403,-0.00000824,0.00000497,-0.00000134,-0.00000836,0.
 00000178,-0.00000408,-0.00000820,0.00000426,-0.00000102,-0.00000854,-0
 .00000503,0.00000425,-0.00000348,-0.00000033,-0.00000031,0.00000514,0.
 00000180,-0.00000311,0.00000919,-0.00000349,0.00000395,0.00000899,-0.0
 0000059,0.00000394,0.00000381,-0.00000131,-0.00000168,0.00000886\\\@


 MAN IS THE MEASURE OF ALL THINGS.
  -- PROTAGORAS (5TH CENTURY B.C.)
 Job cpu time:       0 days  7 hours  6 minutes 50.7 seconds.
 Elapsed time:       0 days  0 hours 26 minutes 45.2 seconds.
 File lengths (MBytes):  RWF=    519 Int=      0 D2E=      0 Chk=     21 Scr=      1
 Normal termination of Gaussian 16 at Sun Feb 28 14:23:27 2021.
