 Entering Gaussian System, Link 0=g16
 Initial command:
 /apps/gaussian/16/A.03/g16/l1.exe "/beegfs/scratch/user/q/tla25/Gau-34649.inp" -scrdir="/beegfs/scratch/user/q/tla25/"
 Entering Link 1 = /apps/gaussian/16/A.03/g16/l1.exe PID=     34650.
  
 Copyright (c) 1988,1990,1992,1993,1995,1998,2003,2009,2016,
            Gaussian, Inc.  All Rights Reserved.
  
 This is part of the Gaussian(R) 16 program.  It is based on
 the Gaussian(R) 09 system (copyright 2009, Gaussian, Inc.),
 the Gaussian(R) 03 system (copyright 2003, Gaussian, Inc.),
 the Gaussian(R) 98 system (copyright 1998, Gaussian, Inc.),
 the Gaussian(R) 94 system (copyright 1995, Gaussian, Inc.),
 the Gaussian 92(TM) system (copyright 1992, Gaussian, Inc.),
 the Gaussian 90(TM) system (copyright 1990, Gaussian, Inc.),
 the Gaussian 88(TM) system (copyright 1988, Gaussian, Inc.),
 the Gaussian 86(TM) system (copyright 1986, Carnegie Mellon
 University), and the Gaussian 82(TM) system (copyright 1983,
 Carnegie Mellon University). Gaussian is a federally registered
 trademark of Gaussian, Inc.
  
 This software contains proprietary and confidential information,
 including trade secrets, belonging to Gaussian, Inc.
  
 This software is provided under written license and may be
 used, copied, transmitted, or stored only in accord with that
 written license.
  
 The following legend is applicable only to US Government
 contracts under FAR:
  
                    RESTRICTED RIGHTS LEGEND
  
 Use, reproduction and disclosure by the US Government is
 subject to restrictions as set forth in subparagraphs (a)
 and (c) of the Commercial Computer Software - Restricted
 Rights clause in FAR 52.227-19.
  
 Gaussian, Inc.
 340 Quinnipiac St., Bldg. 40, Wallingford CT 06492
  
  
 ---------------------------------------------------------------
 Warning -- This program may not be used in any manner that
 competes with the business of Gaussian, Inc. or will provide
 assistance to any competitor of Gaussian, Inc.  The licensee
 of this program is prohibited from giving any competitor of
 Gaussian, Inc. access to this program.  By using this program,
 the user acknowledges that Gaussian, Inc. is engaged in the
 business of creating and licensing software in the field of
 computational chemistry and represents and warrants to the
 licensee that it is not a competitor of Gaussian, Inc. and that
 it will not use this program in any manner prohibited above.
 ---------------------------------------------------------------
  

 Cite this work as:
 Gaussian 16, Revision A.03,
 M. J. Frisch, G. W. Trucks, H. B. Schlegel, G. E. Scuseria, 
 M. A. Robb, J. R. Cheeseman, G. Scalmani, V. Barone, 
 G. A. Petersson, H. Nakatsuji, X. Li, M. Caricato, A. V. Marenich, 
 J. Bloino, B. G. Janesko, R. Gomperts, B. Mennucci, H. P. Hratchian, 
 J. V. Ortiz, A. F. Izmaylov, J. L. Sonnenberg, D. Williams-Young, 
 F. Ding, F. Lipparini, F. Egidi, J. Goings, B. Peng, A. Petrone, 
 T. Henderson, D. Ranasinghe, V. G. Zakrzewski, J. Gao, N. Rega, 
 G. Zheng, W. Liang, M. Hada, M. Ehara, K. Toyota, R. Fukuda, 
 J. Hasegawa, M. Ishida, T. Nakajima, Y. Honda, O. Kitao, H. Nakai, 
 T. Vreven, K. Throssell, J. A. Montgomery, Jr., J. E. Peralta, 
 F. Ogliaro, M. J. Bearpark, J. J. Heyd, E. N. Brothers, K. N. Kudin, 
 V. N. Staroverov, T. A. Keith, R. Kobayashi, J. Normand, 
 K. Raghavachari, A. P. Rendell, J. C. Burant, S. S. Iyengar, 
 J. Tomasi, M. Cossi, J. M. Millam, M. Klene, C. Adamo, R. Cammi, 
 J. W. Ochterski, R. L. Martin, K. Morokuma, O. Farkas, 
 J. B. Foresman, and D. J. Fox, Gaussian, Inc., Wallingford CT, 2016.
 
 ******************************************
 Gaussian 16:  ES64L-G16RevA.03 25-Dec-2016
                28-Feb-2021 
 ******************************************
 %nprocshared=16
 Will use up to   16 processors via shared memory.
 %mem=48GB
 ----------------------------------------------------------------------
 # wB97XD def2tzvp, opt=(ts, noeigen, calcfc, maxcycles=70, maxstep=8),
  freq=noraman, scrf=(iefpcm, solvent=water)
 ----------------------------------------------------------------------
 1/5=1,6=70,8=8,10=4,11=1,18=20,26=3,38=1/1,3;
 2/9=110,12=2,17=6,18=5,40=1/2;
 3/5=44,7=101,11=2,25=1,30=1,70=2201,71=2,72=1,74=-58,140=1/1,2,3;
 4//1;
 5/5=2,38=5,53=1/2;
 8/6=4,10=90,11=11/1;
 11/6=1,8=1,9=11,15=111,16=1/1,2,10;
 10/6=1,13=1/2;
 6/7=2,8=2,9=2,10=2,28=1/1;
 7/10=1,18=20,25=1/1,2,3,16;
 1/5=1,6=70,8=8,10=4,11=1,18=20,26=3/3(2);
 2/9=110/2;
 99//99;
 2/9=110/2;
 3/5=44,7=101,11=2,25=1,30=1,70=2205,71=1,72=1,74=-58/1,2,3;
 4/5=5,16=3,69=1/1;
 5/5=2,38=5,53=1/2;
 7//1,2,3,16;
 1/5=1,6=70,8=8,11=1,18=20,26=3/3(-5);
 2/9=110/2;
 6/7=2,8=2,9=2,10=2,19=2,28=1/1;
 99/9=1/99;
 ------------------------
 1_iteration/TS-972-1.out
 ------------------------
 Symbolic Z-matrix:
 Charge =  0 Multiplicity = 1
 C                    -0.3478    0.01592  -0.82984 
 C                    -1.57951  -0.10197  -0.10434 
 O                    -1.70144  -0.35331   1.08459 
 C                     0.86813  -0.27095  -0.25709 
 C                     1.0698    2.38432   0.71977 
 H                     0.8939    3.07721   1.54228 
 H                     1.96236   2.68684   0.17691 
 H                     0.21185   2.41397   0.04329 
 N                     1.22604   1.01857   1.18955 
 H                     2.12646   0.84361   1.61933 
 H                     0.49178   0.75498   1.83835 
 Cl                    2.27022  -0.00038  -1.27032 
 Cl                    1.08803  -1.70329   0.76227 
 H                    -0.35902   0.497    -1.79488 
 O                    -2.64862   0.14257  -0.89135 
 C                    -3.91996   0.12064  -0.2524 
 H                    -4.64591   0.34669  -1.02903 
 H                    -4.12496  -0.86119   0.17468 
 H                    -3.97239   0.87153   0.53644 
 
 Add virtual bond connecting atoms N9         and C4         Dist= 3.72D+00.

 GradGradGradGradGradGradGradGradGradGradGradGradGradGradGradGradGradGrad
 Berny optimization.
 Initialization pass.
                           ----------------------------
                           !    Initial Parameters    !
                           ! (Angstroms and Degrees)  !
 --------------------------                            --------------------------
 ! Name  Definition              Value          Derivative Info.                !
 --------------------------------------------------------------------------------
 ! R1    R(1,2)                  1.4343         calculate D2E/DX2 analytically  !
 ! R2    R(1,4)                  1.3743         calculate D2E/DX2 analytically  !
 ! R3    R(1,14)                 1.0784         calculate D2E/DX2 analytically  !
 ! R4    R(2,3)                  1.2213         calculate D2E/DX2 analytically  !
 ! R5    R(2,15)                 1.3499         calculate D2E/DX2 analytically  !
 ! R6    R(4,9)                  1.9707         calculate D2E/DX2 analytically  !
 ! R7    R(4,12)                 1.7509         calculate D2E/DX2 analytically  !
 ! R8    R(4,13)                 1.7717         calculate D2E/DX2 analytically  !
 ! R9    R(5,6)                  1.0898         calculate D2E/DX2 analytically  !
 ! R10   R(5,7)                  1.0876         calculate D2E/DX2 analytically  !
 ! R11   R(5,8)                  1.093          calculate D2E/DX2 analytically  !
 ! R12   R(5,9)                  1.4527         calculate D2E/DX2 analytically  !
 ! R13   R(9,10)                 1.013          calculate D2E/DX2 analytically  !
 ! R14   R(9,11)                 1.0147         calculate D2E/DX2 analytically  !
 ! R15   R(15,16)                1.423          calculate D2E/DX2 analytically  !
 ! R16   R(16,17)                1.0869         calculate D2E/DX2 analytically  !
 ! R17   R(16,18)                1.0901         calculate D2E/DX2 analytically  !
 ! R18   R(16,19)                1.0903         calculate D2E/DX2 analytically  !
 ! A1    A(2,1,4)              122.1269         calculate D2E/DX2 analytically  !
 ! A2    A(2,1,14)             118.7104         calculate D2E/DX2 analytically  !
 ! A3    A(4,1,14)             118.3772         calculate D2E/DX2 analytically  !
 ! A4    A(1,2,3)              126.5155         calculate D2E/DX2 analytically  !
 ! A5    A(1,2,15)             111.7358         calculate D2E/DX2 analytically  !
 ! A6    A(3,2,15)             121.7205         calculate D2E/DX2 analytically  !
 ! A7    A(1,4,9)              109.2698         calculate D2E/DX2 analytically  !
 ! A8    A(1,4,12)             115.7888         calculate D2E/DX2 analytically  !
 ! A9    A(1,4,13)             121.2202         calculate D2E/DX2 analytically  !
 ! A10   A(9,4,12)             100.2677         calculate D2E/DX2 analytically  !
 ! A11   A(9,4,13)              94.8249         calculate D2E/DX2 analytically  !
 ! A12   A(12,4,13)            111.0071         calculate D2E/DX2 analytically  !
 ! A13   A(6,5,7)              109.4109         calculate D2E/DX2 analytically  !
 ! A14   A(6,5,8)              108.8566         calculate D2E/DX2 analytically  !
 ! A15   A(6,5,9)              111.78           calculate D2E/DX2 analytically  !
 ! A16   A(7,5,8)              109.1306         calculate D2E/DX2 analytically  !
 ! A17   A(7,5,9)              109.5512         calculate D2E/DX2 analytically  !
 ! A18   A(8,5,9)              108.0641         calculate D2E/DX2 analytically  !
 ! A19   A(4,9,5)              110.993          calculate D2E/DX2 analytically  !
 ! A20   A(4,9,10)             111.0923         calculate D2E/DX2 analytically  !
 ! A21   A(4,9,11)              99.6698         calculate D2E/DX2 analytically  !
 ! A22   A(5,9,10)             113.2778         calculate D2E/DX2 analytically  !
 ! A23   A(5,9,11)             111.9116         calculate D2E/DX2 analytically  !
 ! A24   A(10,9,11)            109.0919         calculate D2E/DX2 analytically  !
 ! A25   A(2,15,16)            116.2956         calculate D2E/DX2 analytically  !
 ! A26   A(15,16,17)           105.8241         calculate D2E/DX2 analytically  !
 ! A27   A(15,16,18)           110.9643         calculate D2E/DX2 analytically  !
 ! A28   A(15,16,19)           110.9278         calculate D2E/DX2 analytically  !
 ! A29   A(17,16,18)           109.9779         calculate D2E/DX2 analytically  !
 ! A30   A(17,16,19)           109.9756         calculate D2E/DX2 analytically  !
 ! A31   A(18,16,19)           109.1336         calculate D2E/DX2 analytically  !
 ! D1    D(4,1,2,3)              6.1078         calculate D2E/DX2 analytically  !
 ! D2    D(4,1,2,15)          -175.809          calculate D2E/DX2 analytically  !
 ! D3    D(14,1,2,3)          -163.5717         calculate D2E/DX2 analytically  !
 ! D4    D(14,1,2,15)           14.5115         calculate D2E/DX2 analytically  !
 ! D5    D(2,1,4,9)            -65.0627         calculate D2E/DX2 analytically  !
 ! D6    D(2,1,4,12)          -177.3117         calculate D2E/DX2 analytically  !
 ! D7    D(2,1,4,13)            43.3637         calculate D2E/DX2 analytically  !
 ! D8    D(14,1,4,9)           104.6497         calculate D2E/DX2 analytically  !
 ! D9    D(14,1,4,12)           -7.5993         calculate D2E/DX2 analytically  !
 ! D10   D(14,1,4,13)         -146.9238         calculate D2E/DX2 analytically  !
 ! D11   D(1,2,15,16)         -176.8242         calculate D2E/DX2 analytically  !
 ! D12   D(3,2,15,16)            1.3648         calculate D2E/DX2 analytically  !
 ! D13   D(1,4,9,5)            -51.8519         calculate D2E/DX2 analytically  !
 ! D14   D(1,4,9,10)          -178.8428         calculate D2E/DX2 analytically  !
 ! D15   D(1,4,9,11)            66.2376         calculate D2E/DX2 analytically  !
 ! D16   D(12,4,9,5)            70.2689         calculate D2E/DX2 analytically  !
 ! D17   D(12,4,9,10)          -56.722          calculate D2E/DX2 analytically  !
 ! D18   D(12,4,9,11)         -171.6417         calculate D2E/DX2 analytically  !
 ! D19   D(13,4,9,5)          -177.3414         calculate D2E/DX2 analytically  !
 ! D20   D(13,4,9,10)           55.6677         calculate D2E/DX2 analytically  !
 ! D21   D(13,4,9,11)          -59.2519         calculate D2E/DX2 analytically  !
 ! D22   D(6,5,9,4)            158.7177         calculate D2E/DX2 analytically  !
 ! D23   D(6,5,9,10)           -75.501          calculate D2E/DX2 analytically  !
 ! D24   D(6,5,9,11)            48.3364         calculate D2E/DX2 analytically  !
 ! D25   D(7,5,9,4)            -79.8372         calculate D2E/DX2 analytically  !
 ! D26   D(7,5,9,10)            45.9442         calculate D2E/DX2 analytically  !
 ! D27   D(7,5,9,11)           169.7816         calculate D2E/DX2 analytically  !
 ! D28   D(8,5,9,4)             38.9548         calculate D2E/DX2 analytically  !
 ! D29   D(8,5,9,10)           164.7361         calculate D2E/DX2 analytically  !
 ! D30   D(8,5,9,11)           -71.4265         calculate D2E/DX2 analytically  !
 ! D31   D(2,15,16,17)         179.3625         calculate D2E/DX2 analytically  !
 ! D32   D(2,15,16,18)         -61.3703         calculate D2E/DX2 analytically  !
 ! D33   D(2,15,16,19)          60.1178         calculate D2E/DX2 analytically  !
 --------------------------------------------------------------------------------
 Trust Radius=8.00D-02 FncErr=1.00D-07 GrdErr=1.00D-06 EigMax=2.50D+02 EigMin=1.00D-04
 Number of steps in this run=     70 maximum allowed number of steps=    114.
 Search for a saddle point of order  1.
 GradGradGradGradGradGradGradGradGradGradGradGradGradGradGradGradGradGrad

                          Input orientation:                          
 ---------------------------------------------------------------------
 Center     Atomic      Atomic             Coordinates (Angstroms)
 Number     Number       Type             X           Y           Z
 ---------------------------------------------------------------------
      1          6           0       -0.347800    0.015920   -0.829840
      2          6           0       -1.579510   -0.101970   -0.104340
      3          8           0       -1.701440   -0.353310    1.084590
      4          6           0        0.868130   -0.270950   -0.257090
      5          6           0        1.069800    2.384320    0.719770
      6          1           0        0.893900    3.077210    1.542280
      7          1           0        1.962360    2.686840    0.176910
      8          1           0        0.211850    2.413970    0.043290
      9          7           0        1.226040    1.018570    1.189550
     10          1           0        2.126460    0.843610    1.619330
     11          1           0        0.491780    0.754980    1.838350
     12         17           0        2.270220   -0.000380   -1.270320
     13         17           0        1.088030   -1.703290    0.762270
     14          1           0       -0.359020    0.497000   -1.794880
     15          8           0       -2.648620    0.142570   -0.891350
     16          6           0       -3.919960    0.120640   -0.252400
     17          1           0       -4.645910    0.346690   -1.029030
     18          1           0       -4.124960   -0.861190    0.174680
     19          1           0       -3.972390    0.871530    0.536440
 ---------------------------------------------------------------------
                    Distance matrix (angstroms):
                    1          2          3          4          5
     1  C    0.000000
     2  C    1.434349   0.000000
     3  O    2.373545   1.221308   0.000000
     4  C    1.374344   2.458217   2.899927   0.000000
     5  C    3.165470   3.725539   3.912478   2.836439   0.000000
     6  H    4.066973   4.351586   4.325938   3.801128   1.089752
     7  H    3.672084   4.516792   4.846630   3.183428   1.087602
     8  H    2.612701   3.092041   3.521764   2.780239   1.092970
     9  N    2.749585   3.286468   3.234689   1.970718   1.452714
    10  H    3.578473   4.195161   4.046157   2.519244   2.073530
    11  H    2.893154   2.966252   2.570345   2.363269   2.059145
    12  Cl   2.654867   4.023711   4.630793   1.750914   3.329904
    13  Cl   2.748109   3.229707   3.115683   1.771736   4.087872
    14  H    1.078363   2.169398   3.288840   2.111976   3.453544
    15  O    2.305124   1.349882   2.246639   3.597334   4.631177
    16  C    3.620046   2.355670   2.633249   4.804079   5.564806
    17  H    4.315418   3.234062   3.691516   5.601965   6.315028
    18  H    4.005661   2.670877   2.638054   5.046361   6.149471
    19  H    3.966918   2.661612   2.637786   5.036426   5.267430
                    6          7          8          9         10
     6  H    0.000000
     7  H    1.777141   0.000000
     8  H    1.775402   1.776682   0.000000
     9  N    2.114884   2.085841   2.071143   0.000000
    10  H    2.552275   2.346274   2.935245   1.012955   0.000000
    11  H    2.375313   2.941950   2.460254   1.014672   1.651667
    12  Cl   4.390505   3.067638   3.433882   2.859988   3.013812
    13  Cl   4.847606   4.514459   4.270416   2.758648   2.880901
    14  H    4.400446   3.751288   2.716530   3.419250   4.237284
    15  O    5.204240   5.373605   3.770292   4.484474   5.440254
    16  C    5.927515   6.432059   4.734834   5.419116   6.370656
    17  H    6.690058   7.113355   5.387147   6.312948   7.288740
    18  H    6.524590   7.045849   5.436162   5.761654   6.638796
    19  H    5.436683   6.216580   4.486667   5.241359   6.194304
                   11         12         13         14         15
    11  H    0.000000
    12  Cl   3.660225   0.000000
    13  Cl   2.748919   2.903256   0.000000
    14  H    3.740424   2.726803   3.670728   0.000000
    15  O    4.205760   4.935488   4.483772   2.486816   0.000000
    16  C    4.923116   6.274483   5.425517   3.898870   1.423040
    17  H    5.897832   6.929035   6.347381   4.357355   2.012409
    18  H    5.166633   6.612666   5.313159   4.461631   2.079311
    19  H    4.651598   6.557041   5.682301   4.316453   2.079022
                   16         17         18         19
    16  C    0.000000
    17  H    1.086856   0.000000
    18  H    1.090143   1.783054   0.000000
    19  H    1.090345   1.783194   1.776645   0.000000
 Stoichiometry    C5H9Cl2NO2
 Framework group  C1[X(C5H9Cl2NO2)]
 Deg. of freedom    51
 Full point group                 C1      NOp   1
 Largest Abelian subgroup         C1      NOp   1
 Largest concise Abelian subgroup C1      NOp   1
                         Standard orientation:                         
 ---------------------------------------------------------------------
 Center     Atomic      Atomic             Coordinates (Angstroms)
 Number     Number       Type             X           Y           Z
 ---------------------------------------------------------------------
      1          6           0        0.347801    0.015919    0.829839
      2          6           0        1.579511   -0.101970    0.104339
      3          8           0        1.701441   -0.353310   -1.084591
      4          6           0       -0.868129   -0.270951    0.257089
      5          6           0       -1.069801    2.384318   -0.719771
      6          1           0       -0.893901    3.077209   -1.542281
      7          1           0       -1.962361    2.686838   -0.176911
      8          1           0       -0.211851    2.413969   -0.043291
      9          7           0       -1.226040    1.018568   -1.189551
     10          1           0       -2.126460    0.843608   -1.619331
     11          1           0       -0.491780    0.754979   -1.838351
     12         17           0       -2.270219   -0.000382    1.270319
     13         17           0       -1.088028   -1.703292   -0.762271
     14          1           0        0.359021    0.496999    1.794879
     15          8           0        2.648621    0.142571    0.891349
     16          6           0        3.919961    0.120642    0.252399
     17          1           0        4.645911    0.346692    1.029029
     18          1           0        4.124961   -0.861188   -0.174681
     19          1           0        3.972390    0.871532   -0.536441
 ---------------------------------------------------------------------
 Rotational constants (GHZ):           1.3670972           0.5878245           0.5505727
 Standard basis: def2TZVP (5D, 7F)
 There are   426 symmetry adapted cartesian basis functions of A   symmetry.
 There are   376 symmetry adapted basis functions of A   symmetry.
   376 basis functions,   618 primitive gaussians,   426 cartesian basis functions
    48 alpha electrons       48 beta electrons
       nuclear repulsion energy       752.5814944789 Hartrees.
 NAtoms=   19 NActive=   19 NUniq=   19 SFac= 1.00D+00 NAtFMM=   60 NAOKFM=F Big=F
 Integral buffers will be    131072 words long.
 Raffenetti 2 integral format.
 Two-electron integral symmetry is turned on.
 Nuclear repulsion after empirical dispersion term =      752.5705177936 Hartrees.
 Force inversion solution in PCM.
 ------------------------------------------------------------------------------
 Polarizable Continuum Model (PCM)
 =================================
 Model                : PCM.
 Atomic radii         : UFF (Universal Force Field).
 Polarization charges : Total charges.
 Charge compensation  : None.
 Solution method      : Matrix inversion.
 Cavity type          : Scaled VdW (van der Waals Surface) (Alpha=1.100).
 Cavity algorithm     : GePol (No added spheres)
                        Default sphere list used, NSphG=   19.
                        Lebedev-Laikov grids with approx.  5.0 points / Ang**2.
                        Smoothing algorithm: York/Karplus (Gamma=1.0000).
                        Polarization charges: spherical gaussians, with
                                              point-specific exponents (IZeta= 3).
                        Self-potential: point-specific (ISelfS= 7).
                        Self-field    : sphere-specific E.n sum rule (ISelfD= 2).
 1st derivatives      : Analytical E(r).r(x)/FMM algorithm (CHGder, D1EAlg=3).
                        Cavity 1st derivative terms included.
 2nd derivatives      : Analytical E(r).r(xy)/FMM algorithm (CHGder, D2EAlg=3).
                        Cavity 2nd derivative terms included.
 Solvent              : Water, Eps=  78.355300 Eps(inf)=   1.777849
 ------------------------------------------------------------------------------
 Spheres list:
 ISph  on   Nord     Re0    Alpha      Xe            Ye            Ze
    1   C      1    1.9255  1.100      0.347801      0.015919      0.829839
    2   C      2    1.9255  1.100      1.579511     -0.101970      0.104339
    3   O      3    1.7500  1.100      1.701441     -0.353310     -1.084591
    4   C      4    1.9255  1.100     -0.868129     -0.270951      0.257089
    5   C      5    1.9255  1.100     -1.069801      2.384318     -0.719771
    6   H      6    1.4430  1.100     -0.893901      3.077209     -1.542281
    7   H      7    1.4430  1.100     -1.962361      2.686838     -0.176911
    8   H      8    1.4430  1.100     -0.211851      2.413969     -0.043291
    9   N      9    1.8300  1.100     -1.226040      1.018568     -1.189551
   10   H     10    1.4430  1.100     -2.126460      0.843608     -1.619331
   11   H     11    1.4430  1.100     -0.491780      0.754979     -1.838351
   12  Cl     12    1.9735  1.100     -2.270219     -0.000382      1.270319
   13  Cl     13    1.9735  1.100     -1.088028     -1.703292     -0.762271
   14   H     14    1.4430  1.100      0.359021      0.496999      1.794879
   15   O     15    1.7500  1.100      2.648621      0.142571      0.891349
   16   C     16    1.9255  1.100      3.919961      0.120642      0.252399
   17   H     17    1.4430  1.100      4.645911      0.346692      1.029029
   18   H     18    1.4430  1.100      4.124961     -0.861188     -0.174681
   19   H     19    1.4430  1.100      3.972390      0.871532     -0.536441
 ------------------------------------------------------------------------------
 One-electron integrals computed using PRISM.
   1 Symmetry operations used in ECPInt.
 ECPInt:  NShTT=   11325 NPrTT=   36321 LenC2=   10652 LenP2D=   25496.
 LDataN:  DoStor=T MaxTD1= 6 Len=  172
 NBasis=   376 RedAO= T EigKep=  8.02D-05  NBF=   376
 NBsUse=   376 1.00D-06 EigRej= -1.00D+00 NBFU=   376
 ExpMin= 9.52D-02 ExpMax= 6.95D+04 ExpMxC= 2.37D+03 IAcc=3 IRadAn=         5 AccDes= 0.00D+00
 Harris functional with IExCor= 4639 and IRadAn=       5 diagonalized for initial guess.
 HarFok:  IExCor= 4639 AccDes= 0.00D+00 IRadAn=         5 IDoV= 1 UseB2=F ITyADJ=14
 ICtDFT=  3500011 ScaDFX=  1.000000  1.000000  1.000000  1.000000
 FoFCou: FMM=F IPFlag=           0 FMFlag=      100000 FMFlg1=           0
         NFxFlg=           0 DoJE=T BraDBF=F KetDBF=T FulRan=T
         wScrn=  0.000000 ICntrl=       500 IOpCl=  0 I1Cent=   200000004 NGrid=           0
         NMat0=    1 NMatS0=      1 NMatT0=    0 NMatD0=    1 NMtDS0=    0 NMtDT0=    0
 Petite list used in FoFCou.
 Requested convergence on RMS density matrix=1.00D-08 within 128 cycles.
 Requested convergence on MAX density matrix=1.00D-06.
 Requested convergence on             energy=1.00D-06.
 No special actions if energy rises.
 Inv3:  Mode=1 IEnd=     7853772.
 Iteration    1 A*A^-1 deviation from unit magnitude is 5.22D-15 for   1608.
 Iteration    1 A*A^-1 deviation from orthogonality  is 1.75D-15 for   1603   1585.
 Iteration    1 A^-1*A deviation from unit magnitude is 5.11D-15 for   1608.
 Iteration    1 A^-1*A deviation from orthogonality  is 1.17D-14 for   1327   1311.
 Error on total polarization charges =  0.01247
 SCF Done:  E(RwB97XD) =  -1321.55990446     A.U. after   15 cycles
            NFock= 15  Conv=0.44D-08     -V/T= 2.0024
 DoSCS=F DFT=T ScalE2(SS,OS)=  1.000000  1.000000
 Range of M.O.s used for correlation:     1   376
 NBasis=   376 NAE=    48 NBE=    48 NFC=     0 NFV=     0
 NROrb=    376 NOA=    48 NOB=    48 NVA=   328 NVB=   328

 **** Warning!!: The largest alpha MO coefficient is  0.20024572D+02

   1 Symmetry operations used in ECPInt.
 ECPInt:  NShTT=   11325 NPrTT=   36321 LenC2=   10652 LenP2D=   25496.
 LDataN:  DoStor=T MaxTD1= 7 Len=  274
 Symmetrizing basis deriv contribution to polar:
 IMax=3 JMax=2 DiffMx= 0.00D+00
 G2DrvN: will do    20 centers at a time, making    1 passes.
 Calling FoFCou, ICntrl=  3107 FMM=F I1Cent=   0 AccDes= 0.00D+00.
 NEqPCM:  Using equilibrium solvation (IEInf=0, Eps=  78.3553, EpsInf=   1.7778)
 G2PCM: DoFxE=T DoFxN=T DoGrad=T DoDP/DQ/DG/TGxP=FFFF NFrqRd=   0 IEInf=0 SqF1=F DoCFld=F IF1Alg=4.
 End of G2Drv F.D. properties file   721 does not exist.
 End of G2Drv F.D. properties file   722 does not exist.
 End of G2Drv F.D. properties file   788 does not exist.
          IDoAtm=1111111111111111111
 NEqPCM:  Using equilibrium solvation (IEInf=0, Eps=  78.3553, EpsInf=   1.7778)
          Differentiating once with respect to nuclear coordinates.
 Keep R1 ints in memory in canonical form, NReq=5062415796.
          There are    60 degrees of freedom in the 1st order CPHF.  IDoFFX=6 NUNeed=     0.
     54 vectors produced by pass  0 Test12= 2.62D-14 1.67D-09 XBig12= 1.33D-01 1.59D-01.
 AX will form    54 AO Fock derivatives at one time.
     54 vectors produced by pass  1 Test12= 2.62D-14 1.67D-09 XBig12= 1.40D-02 2.65D-02.
     54 vectors produced by pass  2 Test12= 2.62D-14 1.67D-09 XBig12= 4.40D-04 4.23D-03.
     54 vectors produced by pass  3 Test12= 2.62D-14 1.67D-09 XBig12= 8.80D-06 5.01D-04.
     54 vectors produced by pass  4 Test12= 2.62D-14 1.67D-09 XBig12= 1.16D-07 6.42D-05.
     54 vectors produced by pass  5 Test12= 2.62D-14 1.67D-09 XBig12= 1.25D-09 6.82D-06.
     54 vectors produced by pass  6 Test12= 2.62D-14 1.67D-09 XBig12= 1.03D-11 3.79D-07.
     22 vectors produced by pass  7 Test12= 2.62D-14 1.67D-09 XBig12= 7.37D-14 2.98D-08.
      3 vectors produced by pass  8 Test12= 2.62D-14 1.67D-09 XBig12= 5.46D-16 3.63D-09.
 InvSVY:  IOpt=1 It=  1 EMax= 5.55D-16
 Solved reduced A of dimension   403 with    60 vectors.
 End of Minotr F.D. properties file   721 does not exist.
 End of Minotr F.D. properties file   722 does not exist.
 End of Minotr F.D. properties file   788 does not exist.

 **********************************************************************

            Population analysis using the SCF density.

 **********************************************************************

 Orbital symmetries:
       Occupied  (A) (A) (A) (A) (A) (A) (A) (A) (A) (A) (A) (A)
                 (A) (A) (A) (A) (A) (A) (A) (A) (A) (A) (A) (A)
                 (A) (A) (A) (A) (A) (A) (A) (A) (A) (A) (A) (A)
                 (A) (A) (A) (A) (A) (A) (A) (A) (A) (A) (A) (A)
       Virtual   (A) (A) (A) (A) (A) (A) (A) (A) (A) (A) (A) (A)
                 (A) (A) (A) (A) (A) (A) (A) (A) (A) (A) (A) (A)
                 (A) (A) (A) (A) (A) (A) (A) (A) (A) (A) (A) (A)
                 (A) (A) (A) (A) (A) (A) (A) (A) (A) (A) (A) (A)
                 (A) (A) (A) (A) (A) (A) (A) (A) (A) (A) (A) (A)
                 (A) (A) (A) (A) (A) (A) (A) (A) (A) (A) (A) (A)
                 (A) (A) (A) (A) (A) (A) (A) (A) (A) (A) (A) (A)
                 (A) (A) (A) (A) (A) (A) (A) (A) (A) (A) (A) (A)
                 (A) (A) (A) (A) (A) (A) (A) (A) (A) (A) (A) (A)
                 (A) (A) (A) (A) (A) (A) (A) (A) (A) (A) (A) (A)
                 (A) (A) (A) (A) (A) (A) (A) (A) (A) (A) (A) (A)
                 (A) (A) (A) (A) (A) (A) (A) (A) (A) (A) (A) (A)
                 (A) (A) (A) (A) (A) (A) (A) (A) (A) (A) (A) (A)
                 (A) (A) (A) (A) (A) (A) (A) (A) (A) (A) (A) (A)
                 (A) (A) (A) (A) (A) (A) (A) (A) (A) (A) (A) (A)
                 (A) (A) (A) (A) (A) (A) (A) (A) (A) (A) (A) (A)
                 (A) (A) (A) (A) (A) (A) (A) (A) (A) (A) (A) (A)
                 (A) (A) (A) (A) (A) (A) (A) (A) (A) (A) (A) (A)
                 (A) (A) (A) (A) (A) (A) (A) (A) (A) (A) (A) (A)
                 (A) (A) (A) (A) (A) (A) (A) (A) (A) (A) (A) (A)
                 (A) (A) (A) (A) (A) (A) (A) (A) (A) (A) (A) (A)
                 (A) (A) (A) (A) (A) (A) (A) (A) (A) (A) (A) (A)
                 (A) (A) (A) (A) (A) (A) (A) (A) (A) (A) (A) (A)
                 (A) (A) (A) (A) (A) (A) (A) (A) (A) (A) (A) (A)
                 (A) (A) (A) (A) (A) (A) (A) (A) (A) (A) (A) (A)
                 (A) (A) (A) (A) (A) (A) (A) (A) (A) (A) (A) (A)
                 (A) (A) (A) (A) (A) (A) (A) (A) (A) (A) (A) (A)
                 (A) (A) (A) (A)
 The electronic state is 1-A.
 Alpha  occ. eigenvalues -- -101.71442-101.70756 -19.28752 -19.22303 -14.48459
 Alpha  occ. eigenvalues --  -10.44927 -10.40615 -10.32844 -10.31651 -10.27041
 Alpha  occ. eigenvalues --   -9.60021  -9.59342  -7.34694  -7.34012  -7.33784
 Alpha  occ. eigenvalues --   -7.33755  -7.33106  -7.33074  -1.20225  -1.10854
 Alpha  occ. eigenvalues --   -1.04995  -1.00550  -0.93553  -0.87270  -0.81228
 Alpha  occ. eigenvalues --   -0.78917  -0.70243  -0.64336  -0.63220  -0.60578
 Alpha  occ. eigenvalues --   -0.58225  -0.57493  -0.56813  -0.55067  -0.54361
 Alpha  occ. eigenvalues --   -0.51399  -0.49410  -0.48272  -0.48021  -0.47275
 Alpha  occ. eigenvalues --   -0.44051  -0.42944  -0.41739  -0.39788  -0.38495
 Alpha  occ. eigenvalues --   -0.38407  -0.35963  -0.29741
 Alpha virt. eigenvalues --    0.03062   0.06506   0.09683   0.10944   0.13676
 Alpha virt. eigenvalues --    0.14675   0.16316   0.16575   0.17270   0.18933
 Alpha virt. eigenvalues --    0.19247   0.20488   0.20628   0.21423   0.23090
 Alpha virt. eigenvalues --    0.23426   0.26429   0.27332   0.28531   0.29387
 Alpha virt. eigenvalues --    0.30142   0.31325   0.32006   0.32259   0.33133
 Alpha virt. eigenvalues --    0.35762   0.36120   0.36760   0.38313   0.39005
 Alpha virt. eigenvalues --    0.39444   0.40112   0.40547   0.41487   0.42358
 Alpha virt. eigenvalues --    0.43299   0.44567   0.45473   0.46538   0.47918
 Alpha virt. eigenvalues --    0.48664   0.49125   0.50572   0.50855   0.51255
 Alpha virt. eigenvalues --    0.51786   0.52300   0.53116   0.53405   0.54213
 Alpha virt. eigenvalues --    0.55042   0.56748   0.57062   0.58401   0.58996
 Alpha virt. eigenvalues --    0.59889   0.61364   0.61991   0.63709   0.65557
 Alpha virt. eigenvalues --    0.67165   0.68770   0.69692   0.70403   0.70942
 Alpha virt. eigenvalues --    0.71899   0.72987   0.74118   0.76353   0.78839
 Alpha virt. eigenvalues --    0.79643   0.82186   0.83530   0.83917   0.88336
 Alpha virt. eigenvalues --    0.90352   0.92072   0.92901   0.94249   0.95462
 Alpha virt. eigenvalues --    0.97178   0.98994   0.99990   1.01545   1.03416
 Alpha virt. eigenvalues --    1.07578   1.09142   1.10149   1.11255   1.12468
 Alpha virt. eigenvalues --    1.14703   1.15361   1.16786   1.19740   1.21749
 Alpha virt. eigenvalues --    1.23575   1.24284   1.30593   1.31961   1.33343
 Alpha virt. eigenvalues --    1.35503   1.38550   1.39657   1.44112   1.45402
 Alpha virt. eigenvalues --    1.48052   1.51002   1.54641   1.56050   1.56250
 Alpha virt. eigenvalues --    1.58061   1.59238   1.60030   1.61366   1.61798
 Alpha virt. eigenvalues --    1.62774   1.64727   1.66125   1.66645   1.67806
 Alpha virt. eigenvalues --    1.69349   1.72222   1.75838   1.77556   1.78587
 Alpha virt. eigenvalues --    1.80351   1.81443   1.84872   1.85014   1.86193
 Alpha virt. eigenvalues --    1.87043   1.87764   1.88613   1.89693   1.90963
 Alpha virt. eigenvalues --    1.92043   1.93866   1.94499   1.96036   1.97483
 Alpha virt. eigenvalues --    1.97749   2.00321   2.01215   2.01778   2.05248
 Alpha virt. eigenvalues --    2.05703   2.07022   2.07832   2.09343   2.10660
 Alpha virt. eigenvalues --    2.11266   2.12811   2.13666   2.15256   2.15907
 Alpha virt. eigenvalues --    2.17089   2.18348   2.18822   2.18873   2.20460
 Alpha virt. eigenvalues --    2.21879   2.22870   2.24464   2.26161   2.28005
 Alpha virt. eigenvalues --    2.29338   2.31649   2.32667   2.33788   2.34511
 Alpha virt. eigenvalues --    2.35250   2.35882   2.36662   2.37370   2.39394
 Alpha virt. eigenvalues --    2.41065   2.41400   2.43825   2.44877   2.46287
 Alpha virt. eigenvalues --    2.47571   2.50271   2.52043   2.55398   2.57408
 Alpha virt. eigenvalues --    2.59394   2.61691   2.63432   2.64531   2.66324
 Alpha virt. eigenvalues --    2.67103   2.68056   2.69098   2.70968   2.73753
 Alpha virt. eigenvalues --    2.79061   2.79767   2.81525   2.83336   2.86125
 Alpha virt. eigenvalues --    2.88244   2.89351   2.90455   2.93232   2.93585
 Alpha virt. eigenvalues --    2.96623   3.00047   3.02982   3.04473   3.06034
 Alpha virt. eigenvalues --    3.07700   3.09192   3.13250   3.14004   3.14516
 Alpha virt. eigenvalues --    3.16813   3.17349   3.20036   3.23169   3.25196
 Alpha virt. eigenvalues --    3.25673   3.27972   3.28756   3.30564   3.31986
 Alpha virt. eigenvalues --    3.33599   3.36181   3.36571   3.39884   3.41533
 Alpha virt. eigenvalues --    3.43134   3.43592   3.46362   3.47755   3.49193
 Alpha virt. eigenvalues --    3.51597   3.53689   3.54377   3.56912   3.58479
 Alpha virt. eigenvalues --    3.61264   3.62344   3.63568   3.64172   3.66885
 Alpha virt. eigenvalues --    3.68350   3.72484   3.74876   3.81173   3.82397
 Alpha virt. eigenvalues --    3.85242   3.88956   3.91554   3.92062   4.00796
 Alpha virt. eigenvalues --    4.03322   4.08064   4.12385   4.20631   4.25359
 Alpha virt. eigenvalues --    4.26241   4.26703   4.28344   4.29914   4.37851
 Alpha virt. eigenvalues --    4.42191   4.45423   4.46319   4.50327   4.54625
 Alpha virt. eigenvalues --    4.56028   4.59802   4.64397   4.68749   4.78095
 Alpha virt. eigenvalues --    4.90975   4.96281   4.97538   4.98660   5.01954
 Alpha virt. eigenvalues --    5.05899   5.09786   5.16436   5.19735   5.26644
 Alpha virt. eigenvalues --    5.30824   5.36364   5.38481   5.42596   5.53563
 Alpha virt. eigenvalues --    5.54454   5.59825   5.72336   5.77639   5.87774
 Alpha virt. eigenvalues --    5.94524   6.05531   6.18668   6.27722   6.33697
 Alpha virt. eigenvalues --    6.46967   6.47261   6.62682   6.74962   6.77948
 Alpha virt. eigenvalues --    6.87350   6.97115   6.98234   7.12979   7.20541
 Alpha virt. eigenvalues --    7.38211   7.51076  10.85284  10.86068  10.87021
 Alpha virt. eigenvalues --   10.91495  11.42506  11.44958  22.29832  22.46822
 Alpha virt. eigenvalues --   22.49086  22.77323  23.44927  25.69222  25.81652
 Alpha virt. eigenvalues --   32.11493  44.05744  44.23013
          Condensed to atoms (all electrons):
               1          2          3          4          5          6
     1  C    5.838139   0.327062  -0.160459   0.440705  -0.007742  -0.001216
     2  C    0.327062   4.295190   0.636113  -0.041072  -0.000847  -0.000024
     3  O   -0.160459   0.636113   8.057147   0.035665   0.001335  -0.000011
     4  C    0.440705  -0.041072   0.035665   4.584215  -0.023961   0.002247
     5  C   -0.007742  -0.000847   0.001335  -0.023961   4.870322   0.409741
     6  H   -0.001216  -0.000024  -0.000011   0.002247   0.409741   0.503900
     7  H   -0.004484   0.000584   0.000014   0.000464   0.414307  -0.016918
     8  H    0.024953  -0.005943  -0.001290  -0.005969   0.412979  -0.023717
     9  N   -0.091329   0.023483  -0.005074   0.088664   0.242332  -0.022500
    10  H    0.007572  -0.001082   0.000258  -0.008164  -0.019798  -0.002688
    11  H   -0.019560   0.004881   0.012193   0.000644  -0.018375  -0.006147
    12  Cl  -0.046684  -0.000544  -0.000300   0.338562   0.000803   0.000328
    13  Cl  -0.057362  -0.006346  -0.012338   0.370500   0.002799  -0.000307
    14  H    0.413268  -0.020034   0.003612  -0.040174  -0.001378   0.000068
    15  O   -0.126436   0.390339  -0.088520   0.012301  -0.000571   0.000025
    16  C    0.005265  -0.047573   0.000955  -0.000587   0.000012   0.000001
    17  H    0.001500   0.004051   0.001924  -0.000093  -0.000001   0.000000
    18  H   -0.000022  -0.008581   0.005415   0.000119  -0.000012   0.000001
    19  H    0.000074  -0.005856   0.006028   0.000152   0.000075  -0.000009
               7          8          9         10         11         12
     1  C   -0.004484   0.024953  -0.091329   0.007572  -0.019560  -0.046684
     2  C    0.000584  -0.005943   0.023483  -0.001082   0.004881  -0.000544
     3  O    0.000014  -0.001290  -0.005074   0.000258   0.012193  -0.000300
     4  C    0.000464  -0.005969   0.088664  -0.008164   0.000644   0.338562
     5  C    0.414307   0.412979   0.242332  -0.019798  -0.018375   0.000803
     6  H   -0.016918  -0.023717  -0.022500  -0.002688  -0.006147   0.000328
     7  H    0.501324  -0.022413  -0.032049  -0.006949   0.005159   0.004933
     8  H   -0.022413   0.518140  -0.049513   0.005839  -0.002603   0.000628
     9  N   -0.032049  -0.049513   6.623553   0.348375   0.352531  -0.043673
    10  H   -0.006949   0.005839   0.348375   0.398876  -0.019596   0.002097
    11  H    0.005159  -0.002603   0.352531  -0.019596   0.402050   0.003063
    12  Cl   0.004933   0.000628  -0.043673   0.002097   0.003063  16.875213
    13  Cl   0.000196   0.001018  -0.074148   0.004381   0.001999  -0.068728
    14  H    0.000136  -0.000247   0.001739  -0.000090  -0.000179  -0.001946
    15  O    0.000006   0.000671   0.000007   0.000003   0.000278  -0.000175
    16  C    0.000001  -0.000070   0.000136  -0.000003  -0.000049   0.000002
    17  H    0.000000  -0.000004   0.000001  -0.000000  -0.000002   0.000000
    18  H    0.000000   0.000012   0.000009  -0.000000  -0.000016   0.000001
    19  H   -0.000000  -0.000030  -0.000029   0.000001   0.000012   0.000001
              13         14         15         16         17         18
     1  C   -0.057362   0.413268  -0.126436   0.005265   0.001500  -0.000022
     2  C   -0.006346  -0.020034   0.390339  -0.047573   0.004051  -0.008581
     3  O   -0.012338   0.003612  -0.088520   0.000955   0.001924   0.005415
     4  C    0.370500  -0.040174   0.012301  -0.000587  -0.000093   0.000119
     5  C    0.002799  -0.001378  -0.000571   0.000012  -0.000001  -0.000012
     6  H   -0.000307   0.000068   0.000025   0.000001   0.000000   0.000001
     7  H    0.000196   0.000136   0.000006   0.000001   0.000000   0.000000
     8  H    0.001018  -0.000247   0.000671  -0.000070  -0.000004   0.000012
     9  N   -0.074148   0.001739   0.000007   0.000136   0.000001   0.000009
    10  H    0.004381  -0.000090   0.000003  -0.000003  -0.000000  -0.000000
    11  H    0.001999  -0.000179   0.000278  -0.000049  -0.000002  -0.000016
    12  Cl  -0.068728  -0.001946  -0.000175   0.000002   0.000000   0.000001
    13  Cl  16.903378   0.004063  -0.000224  -0.000074   0.000001  -0.000010
    14  H    0.004063   0.470013   0.004655   0.000028  -0.000178   0.000078
    15  O   -0.000224   0.004655   7.995196   0.220730  -0.029926  -0.037130
    16  C   -0.000074   0.000028   0.220730   4.773035   0.397728   0.420363
    17  H    0.000001  -0.000178  -0.029926   0.397728   0.527412  -0.022054
    18  H   -0.000010   0.000078  -0.037130   0.420363  -0.022054   0.553934
    19  H    0.000017  -0.000006  -0.038913   0.417160  -0.021233  -0.041348
              19
     1  C    0.000074
     2  C   -0.005856
     3  O    0.006028
     4  C    0.000152
     5  C    0.000075
     6  H   -0.000009
     7  H   -0.000000
     8  H   -0.000030
     9  N   -0.000029
    10  H    0.000001
    11  H    0.000012
    12  Cl   0.000001
    13  Cl   0.000017
    14  H   -0.000006
    15  O   -0.038913
    16  C    0.417160
    17  H   -0.021233
    18  H   -0.041348
    19  H    0.555517
 Mulliken charges:
               1
     1  C   -0.543245
     2  C    0.456198
     3  O   -0.492667
     4  C    0.245781
     5  C   -0.282022
     6  H    0.157228
     7  H    0.155691
     8  H    0.147557
     9  N   -0.362517
    10  H    0.290970
    11  H    0.283717
    12  Cl  -0.063579
    13  Cl  -0.068816
    14  H    0.166573
    15  O   -0.302314
    16  C   -0.187057
    17  H    0.140873
    18  H    0.129242
    19  H    0.128388
 Sum of Mulliken charges =  -0.00000
 Mulliken charges with hydrogens summed into heavy atoms:
               1
     1  C   -0.376672
     2  C    0.456198
     3  O   -0.492667
     4  C    0.245781
     5  C    0.178453
     9  N    0.212169
    12  Cl  -0.063579
    13  Cl  -0.068816
    15  O   -0.302314
    16  C    0.211447
 APT charges:
               1
     1  C   -0.706836
     2  C    0.006023
     3  O   -0.286058
     4  C   -0.435812
     5  C   -1.110845
     6  H    0.605649
     7  H    0.490372
     8  H    0.120683
     9  N   -0.730077
    10  H    0.711034
    11  H    0.378234
    12  Cl   0.240705
    13  Cl   0.180019
    14  H    0.420289
    15  O   -0.073833
    16  C   -1.244074
    17  H    0.752526
    18  H    0.373077
    19  H    0.308925
 Sum of APT charges =  -0.00000
 APT charges with hydrogens summed into heavy atoms:
               1
     1  C   -0.286547
     2  C    0.006023
     3  O   -0.286058
     4  C   -0.435812
     5  C    0.105859
     9  N    0.359191
    12  Cl   0.240705
    13  Cl   0.180019
    15  O   -0.073833
    16  C    0.190454
 Electronic spatial extent (au):  <R**2>=           2235.1800
 Charge=              0.0000 electrons
 Dipole moment (field-independent basis, Debye):
    X=             -2.1661    Y=              4.6951    Z=             -1.7661  Tot=              5.4640
 Quadrupole moment (field-independent basis, Debye-Ang):
   XX=            -64.1637   YY=            -69.2469   ZZ=            -72.8011
   XY=             -3.2143   XZ=              6.5812   YZ=             -4.0777
 Traceless Quadrupole moment (field-independent basis, Debye-Ang):
   XX=              4.5735   YY=             -0.5096   ZZ=             -4.0638
   XY=             -3.2143   XZ=              6.5812   YZ=             -4.0777
 Octapole moment (field-independent basis, Debye-Ang**2):
  XXX=             31.3353  YYY=             11.8361  ZZZ=            -10.9436  XYY=             -5.5128
  XXY=             11.6325  XXZ=             -2.4986  XZZ=            -16.6887  YZZ=              8.3199
  YYZ=             -9.0405  XYZ=              1.4996
 Hexadecapole moment (field-independent basis, Debye-Ang**3):
 XXXX=          -1535.3397 YYYY=           -573.8893 ZZZZ=           -425.7639 XXXY=             -8.5976
 XXXZ=             32.9534 YYYX=            -14.0335 YYYZ=             -6.1346 ZZZX=             15.7357
 ZZZY=             -5.0296 XXYY=           -388.3774 XXZZ=           -367.6339 YYZZ=           -165.8139
 XXYZ=             -7.0183 YYXZ=              6.8097 ZZXY=             -1.2188
 N-N= 7.525705177936D+02 E-N=-4.632947846379D+03  KE= 1.318447199824D+03
  Exact polarizability:   0.000   0.000   0.000   0.000   0.000   0.000
 Approx polarizability: 131.491  -3.052 108.719   2.407   4.033 120.149
   1 Symmetry operations used in ECPInt.
 ECPInt:  NShTT=   11325 NPrTT=   36321 LenC2=   10652 LenP2D=   25496.
 LDataN:  DoStor=T MaxTD1= 8 Len=  415
 D2PCM: PCM CHGder 2nd derivatives, FixD1E=F FixD2E=F DoIter=F DoCFld=F I1PDM=0
 Calling FoFJK, ICntrl=    100147 FMM=F ISym2X=0 I1Cent= 0 IOpClX= 0 NMat=1 NMatS=1 NMatT=0.
 ***** Axes restored to original set *****
 -------------------------------------------------------------------
 Center     Atomic                   Forces (Hartrees/Bohr)
 Number     Number              X              Y              Z
 -------------------------------------------------------------------
      1        6           0.000001730    0.000008373    0.000001530
      2        6          -0.000001161    0.000000460   -0.000021685
      3        8           0.000004011    0.000005222    0.000016728
      4        6           0.000003657   -0.000010136    0.000005484
      5        6          -0.000005012   -0.000003777   -0.000002074
      6        1          -0.000005924    0.000008896    0.000005872
      7        1          -0.000000579    0.000000753    0.000000054
      8        1          -0.000000987    0.000001240    0.000001243
      9        7           0.000007450    0.000007299   -0.000005164
     10        1          -0.000002519    0.000013877    0.000007788
     11        1          -0.000017362   -0.000012910    0.000001663
     12       17           0.000009272   -0.000006188   -0.000005580
     13       17          -0.000001934   -0.000000811    0.000007645
     14        1           0.000002867    0.000000221    0.000004240
     15        8           0.000003743   -0.000002748    0.000000896
     16        6           0.000000839   -0.000007657   -0.000003502
     17        1           0.000001722   -0.000003988   -0.000005922
     18        1           0.000000760    0.000001275   -0.000005384
     19        1          -0.000000573    0.000000599   -0.000003833
 -------------------------------------------------------------------
 Cartesian Forces:  Max     0.000021685 RMS     0.000006648
 FormGI is forming the generalized inverse of G from B-inverse, IUseBI=4.

 GradGradGradGradGradGradGradGradGradGradGradGradGradGradGradGradGradGrad
 Berny optimization.
 Internal  Forces:  Max     0.000045273 RMS     0.000008547
 Search for a saddle point.
 Step number   1 out of a maximum of   70
 All quantities printed in internal units (Hartrees-Bohrs-Radians)
 Swapping is turned off.
 Second derivative matrix not updated -- analytic derivatives used.
 ITU=  0
     Eigenvalues ---   -0.03311   0.00132   0.00169   0.00322   0.00894
     Eigenvalues ---    0.00927   0.01043   0.01718   0.02048   0.03162
     Eigenvalues ---    0.04594   0.04841   0.05310   0.06188   0.07429
     Eigenvalues ---    0.08182   0.08287   0.08494   0.08853   0.11057
     Eigenvalues ---    0.12718   0.12978   0.13255   0.15078   0.15256
     Eigenvalues ---    0.17458   0.17920   0.18457   0.18551   0.18866
     Eigenvalues ---    0.19609   0.20596   0.21235   0.25529   0.26388
     Eigenvalues ---    0.28174   0.33423   0.34089   0.34187   0.34283
     Eigenvalues ---    0.34994   0.35147   0.37282   0.37338   0.37914
     Eigenvalues ---    0.40073   0.44966   0.45654   0.46818   0.51087
     Eigenvalues ---    0.79669
 Eigenvectors required to have negative eigenvalues:
                          R6        D7        D10       D5        R8
   1                   -0.87369   0.24620   0.22496   0.12983   0.12468
                          D8        A10       R2        A7        A11
   1                    0.10859   0.10214   0.09802   0.07942   0.07414
 RFO step:  Lambda0=4.004576913D-10 Lambda=-1.37719152D-07.
 Linear search not attempted -- option 19 set.
 Iteration  1 RMS(Cart)=  0.00151164 RMS(Int)=  0.00000067
 Iteration  2 RMS(Cart)=  0.00000098 RMS(Int)=  0.00000004
 Variable       Old X    -DE/DX   Delta X   Delta X   Delta X     New X
                                 (Linear)    (Quad)   (Total)
    R1        2.71053  -0.00000   0.00000   0.00000   0.00000   2.71053
    R2        2.59713  -0.00000   0.00000  -0.00002  -0.00002   2.59711
    R3        2.03781  -0.00000   0.00000  -0.00001  -0.00001   2.03780
    R4        2.30794   0.00002   0.00000   0.00007   0.00007   2.30801
    R5        2.55091  -0.00000   0.00000  -0.00011  -0.00011   2.55080
    R6        3.72412   0.00000   0.00000   0.00065   0.00065   3.72476
    R7        3.30875   0.00001   0.00000  -0.00012  -0.00012   3.30862
    R8        3.34810   0.00000   0.00000   0.00001   0.00001   3.34810
    R9        2.05933   0.00001   0.00000   0.00004   0.00004   2.05937
   R10        2.05527   0.00000   0.00000   0.00001   0.00001   2.05528
   R11        2.06541  -0.00000   0.00000   0.00001   0.00001   2.06542
   R12        2.74523   0.00000   0.00000  -0.00006  -0.00006   2.74517
   R13        1.91421  -0.00000   0.00000  -0.00001  -0.00001   1.91419
   R14        1.91745   0.00001   0.00000   0.00006   0.00006   1.91751
   R15        2.68916   0.00000   0.00000   0.00003   0.00003   2.68918
   R16        2.05386   0.00000   0.00000  -0.00000  -0.00000   2.05386
   R17        2.06007  -0.00000   0.00000  -0.00001  -0.00001   2.06006
   R18        2.06045   0.00000   0.00000   0.00000   0.00000   2.06046
    A1        2.13152  -0.00002   0.00000  -0.00030  -0.00030   2.13122
    A2        2.07189   0.00001   0.00000   0.00010   0.00010   2.07199
    A3        2.06607   0.00001   0.00000   0.00012   0.00012   2.06619
    A4        2.20811  -0.00001   0.00000  -0.00021  -0.00021   2.20790
    A5        1.95016   0.00001   0.00000   0.00016   0.00016   1.95032
    A6        2.12442   0.00000   0.00000   0.00004   0.00004   2.12446
    A7        1.90712  -0.00005   0.00000  -0.00055  -0.00055   1.90656
    A8        2.02090   0.00000   0.00000   0.00014   0.00014   2.02104
    A9        2.11569   0.00001   0.00000   0.00004   0.00004   2.11573
   A10        1.75000   0.00003   0.00000   0.00043   0.00043   1.75043
   A11        1.65501   0.00001   0.00000  -0.00012  -0.00012   1.65489
   A12        1.93744  -0.00000   0.00000   0.00002   0.00002   1.93746
   A13        1.90958   0.00000   0.00000   0.00001   0.00001   1.90959
   A14        1.89991  -0.00000   0.00000  -0.00005  -0.00005   1.89985
   A15        1.95093   0.00000   0.00000   0.00006   0.00006   1.95099
   A16        1.90469   0.00000   0.00000  -0.00003  -0.00003   1.90466
   A17        1.91203  -0.00000   0.00000   0.00000   0.00000   1.91203
   A18        1.88607   0.00000   0.00000   0.00001   0.00001   1.88608
   A19        1.93719   0.00001   0.00000  -0.00000  -0.00000   1.93719
   A20        1.93893   0.00001   0.00000   0.00056   0.00056   1.93948
   A21        1.73957  -0.00001   0.00000  -0.00087  -0.00087   1.73869
   A22        1.97707  -0.00001   0.00000   0.00002   0.00002   1.97709
   A23        1.95323   0.00000   0.00000   0.00004   0.00004   1.95326
   A24        1.90401   0.00000   0.00000   0.00018   0.00018   1.90419
   A25        2.02974  -0.00000   0.00000   0.00002   0.00002   2.02976
   A26        1.84698  -0.00000   0.00000  -0.00001  -0.00001   1.84697
   A27        1.93669   0.00000   0.00000  -0.00001  -0.00001   1.93668
   A28        1.93605  -0.00000   0.00000  -0.00002  -0.00002   1.93603
   A29        1.91948  -0.00000   0.00000   0.00000   0.00000   1.91948
   A30        1.91944   0.00000   0.00000   0.00001   0.00001   1.91945
   A31        1.90474   0.00000   0.00000   0.00002   0.00002   1.90476
    D1        0.10660   0.00000   0.00000   0.00057   0.00057   0.10717
    D2       -3.06845  -0.00000   0.00000   0.00037   0.00037  -3.06807
    D3       -2.85487   0.00001   0.00000   0.00110   0.00110  -2.85377
    D4        0.25327   0.00000   0.00000   0.00090   0.00090   0.25417
    D5       -1.13556   0.00002   0.00000   0.00139   0.00139  -1.13417
    D6       -3.09467   0.00000   0.00000   0.00114   0.00114  -3.09353
    D7        0.75684  -0.00000   0.00000   0.00084   0.00084   0.75768
    D8        1.82648   0.00001   0.00000   0.00087   0.00087   1.82735
    D9       -0.13263  -0.00000   0.00000   0.00062   0.00062  -0.13201
   D10       -2.56430  -0.00001   0.00000   0.00032   0.00032  -2.56399
   D11       -3.08616   0.00000   0.00000   0.00032   0.00032  -3.08585
   D12        0.02382  -0.00000   0.00000   0.00012   0.00012   0.02395
   D13       -0.90499   0.00000   0.00000   0.00002   0.00002  -0.90496
   D14       -3.12140   0.00000   0.00000  -0.00043  -0.00043  -3.12183
   D15        1.15606   0.00000   0.00000  -0.00039  -0.00039   1.15567
   D16        1.22642   0.00000   0.00000   0.00017   0.00017   1.22659
   D17       -0.98999   0.00000   0.00000  -0.00029  -0.00029  -0.99027
   D18       -2.99571   0.00000   0.00000  -0.00025  -0.00025  -2.99596
   D19       -3.09519   0.00001   0.00000   0.00024   0.00024  -3.09496
   D20        0.97158   0.00000   0.00000  -0.00022  -0.00022   0.97136
   D21       -1.03414   0.00001   0.00000  -0.00018  -0.00018  -1.03433
   D22        2.77015  -0.00001   0.00000  -0.00052  -0.00052   2.76963
   D23       -1.31774   0.00000   0.00000   0.00025   0.00025  -1.31749
   D24        0.84363   0.00000   0.00000   0.00053   0.00053   0.84416
   D25       -1.39342  -0.00001   0.00000  -0.00046  -0.00046  -1.39388
   D26        0.80188   0.00000   0.00000   0.00030   0.00030   0.80218
   D27        2.96325   0.00000   0.00000   0.00058   0.00058   2.96383
   D28        0.67989  -0.00001   0.00000  -0.00049  -0.00049   0.67940
   D29        2.87519   0.00000   0.00000   0.00027   0.00027   2.87546
   D30       -1.24663   0.00000   0.00000   0.00055   0.00055  -1.24608
   D31        3.13047   0.00000   0.00000  -0.00010  -0.00010   3.13036
   D32       -1.07111  -0.00000   0.00000  -0.00011  -0.00011  -1.07122
   D33        1.04925   0.00000   0.00000  -0.00010  -0.00010   1.04915
         Item               Value     Threshold  Converged?
 Maximum Force            0.000045     0.000450     YES
 RMS     Force            0.000009     0.000300     YES
 Maximum Displacement     0.005217     0.001800     NO 
 RMS     Displacement     0.001512     0.001200     NO 
 Predicted change in Energy=-6.865935D-08
 GradGradGradGradGradGradGradGradGradGradGradGradGradGradGradGradGradGrad

                          Input orientation:                          
 ---------------------------------------------------------------------
 Center     Atomic      Atomic             Coordinates (Angstroms)
 Number     Number       Type             X           Y           Z
 ---------------------------------------------------------------------
      1          6           0       -0.347169    0.015411   -0.830712
      2          6           0       -1.578635   -0.101587   -0.104650
      3          8           0       -1.699910   -0.351475    1.084691
      4          6           0        0.868703   -0.271469   -0.257871
      5          6           0        1.068384    2.383902    0.719920
      6          1           0        0.891139    3.076502    1.542413
      7          1           0        1.961238    2.687225    0.177977
      8          1           0        0.211067    2.413100    0.042613
      9          7           0        1.225184    1.018173    1.189479
     10          1           0        2.125210    0.843817    1.620310
     11          1           0        0.490198    0.753653    1.837123
     12         17           0        2.270996   -0.000593   -1.270624
     13         17           0        1.088562   -1.703773    0.761555
     14          1           0       -0.358432    0.496195   -1.795895
     15          8           0       -2.648090    0.142169   -0.891336
     16          6           0       -3.919096    0.121391   -0.251650
     17          1           0       -4.645401    0.346704   -1.028160
     18          1           0       -4.124139   -0.859854    0.176732
     19          1           0       -3.970850    0.873270    0.536294
 ---------------------------------------------------------------------
                    Distance matrix (angstroms):
                    1          2          3          4          5
     1  C    0.000000
     2  C    1.434351   0.000000
     3  O    2.373454   1.221344   0.000000
     4  C    1.374332   2.458007   2.899421   0.000000
     5  C    3.165123   3.723477   3.908810   2.836713   0.000000
     6  H    4.066376   4.348891   4.321351   3.801372   1.089773
     7  H    3.672164   4.515313   4.843535   3.183938   1.087610
     8  H    2.612133   3.090044   3.518612   2.780231   1.092973
     9  N    2.749363   3.284818   3.231577   1.971059   1.452683
    10  H    3.578606   4.193775   4.043162   2.519968   2.073510
    11  H    2.891977   2.963442   2.565938   2.362867   2.059163
    12  Cl   2.654913   4.023599   4.630196   1.750848   3.330820
    13  Cl   2.748132   3.229744   3.115879   1.771740   4.087937
    14  H    1.078359   2.169458   3.288750   2.112033   3.453776
    15  O    2.305208   1.349824   2.246644   3.597250   4.629654
    16  C    3.620112   2.355650   2.633286   4.803893   5.562181
    17  H    4.315500   3.234021   3.691546   5.601859   6.312947
    18  H    4.005813   2.670905   2.638129   5.046141   6.146487
    19  H    3.966825   2.661550   2.637785   5.036110   5.263992
                    6          7          8          9         10
     6  H    0.000000
     7  H    1.777170   0.000000
     8  H    1.775387   1.776673   0.000000
     9  N    2.114916   2.085820   2.071124   0.000000
    10  H    2.552230   2.346350   2.935255   1.012947   0.000000
    11  H    2.375550   2.942010   2.460070   1.014702   1.651788
    12  Cl   4.391548   3.069000   3.434212   2.860719   3.015258
    13  Cl   4.847653   4.514752   4.270306   2.758762   2.881374
    14  H    4.400422   3.752020   2.716425   3.419467   4.237897
    15  O    5.201883   5.372769   3.768842   4.483238   5.439216
    16  C    5.923656   6.430117   4.732522   5.417073   6.368655
    17  H    6.686772   7.111995   5.385334   6.311304   7.287159
    18  H    6.520199   7.043691   5.433620   5.759157   6.636322
    19  H    5.431892   6.213574   4.483663   5.238933   6.191762
                   11         12         13         14         15
    11  H    0.000000
    12  Cl   3.660358   0.000000
    13  Cl   2.748423   2.903227   0.000000
    14  H    3.739690   2.727013   3.670722   0.000000
    15  O    4.203243   4.935752   4.483538   2.487186   0.000000
    16  C    4.919817   6.274585   5.425352   3.899166   1.423055
    17  H    5.894899   6.929354   6.347115   4.357736   2.012413
    18  H    5.162597   6.612935   5.312859   4.462138   2.079312
    19  H    4.648378   6.556618   5.682389   4.316348   2.079022
                   16         17         18         19
    16  C    0.000000
    17  H    1.086854   0.000000
    18  H    1.090136   1.783049   0.000000
    19  H    1.090347   1.783201   1.776654   0.000000
 Stoichiometry    C5H9Cl2NO2
 Framework group  C1[X(C5H9Cl2NO2)]
 Deg. of freedom    51
 Full point group                 C1      NOp   1
 Largest Abelian subgroup         C1      NOp   1
 Largest concise Abelian subgroup C1      NOp   1
                         Standard orientation:                         
 ---------------------------------------------------------------------
 Center     Atomic      Atomic             Coordinates (Angstroms)
 Number     Number       Type             X           Y           Z
 ---------------------------------------------------------------------
      1          6           0        0.347345    0.014382    0.830601
      2          6           0        1.578949   -0.102465    0.104747
      3          8           0        1.700419   -0.351126   -1.084831
      4          6           0       -0.868518   -0.271247    0.257118
      5          6           0       -1.066560    2.385285   -0.717848
      6          1           0       -0.888733    3.078685   -1.539541
      7          1           0       -1.959405    2.688482   -0.175819
      8          1           0       -0.209412    2.413305   -0.040277
      9          7           0       -1.223938    1.020147   -1.188930
     10          1           0       -2.123937    0.846724   -1.620195
     11          1           0       -0.488912    0.755949   -1.836661
     12         17           0       -2.270947   -0.000744    1.269782
     13         17           0       -1.088840   -1.702331   -0.763921
     14          1           0        0.358594    0.494114    1.796307
     15          8           0        2.648315    0.139884    0.891988
     16          6           0        3.919484    0.119143    0.252626
     17          1           0        4.645694    0.343238    1.029577
     18          1           0        4.124137   -0.861743   -0.176764
     19          1           0        3.971843    0.871848   -0.534489
 ---------------------------------------------------------------------
 Rotational constants (GHZ):           1.3671342           0.5879260           0.5506973
 Standard basis: def2TZVP (5D, 7F)
 There are   426 symmetry adapted cartesian basis functions of A   symmetry.
 There are   376 symmetry adapted basis functions of A   symmetry.
   376 basis functions,   618 primitive gaussians,   426 cartesian basis functions
    48 alpha electrons       48 beta electrons
       nuclear repulsion energy       752.6119888059 Hartrees.
 NAtoms=   19 NActive=   19 NUniq=   19 SFac= 1.00D+00 NAtFMM=   60 NAOKFM=F Big=F
 Integral buffers will be    131072 words long.
 Raffenetti 2 integral format.
 Two-electron integral symmetry is turned on.
 Nuclear repulsion after empirical dispersion term =      752.6010094067 Hartrees.
 ------------------------------------------------------------------------------
 Polarizable Continuum Model (PCM)
 =================================
 Model                : PCM.
 Atomic radii         : UFF (Universal Force Field).
 Polarization charges : Total charges.
 Charge compensation  : None.
 Solution method      : Matrix inversion.
 Cavity type          : Scaled VdW (van der Waals Surface) (Alpha=1.100).
 Cavity algorithm     : GePol (No added spheres)
                        Default sphere list used, NSphG=   19.
                        Lebedev-Laikov grids with approx.  5.0 points / Ang**2.
                        Smoothing algorithm: York/Karplus (Gamma=1.0000).
                        Polarization charges: spherical gaussians, with
                                              point-specific exponents (IZeta= 3).
                        Self-potential: point-specific (ISelfS= 7).
                        Self-field    : sphere-specific E.n sum rule (ISelfD= 2).
 1st derivatives      : Analytical E(r).r(x)/FMM algorithm (CHGder, D1EAlg=3).
                        Cavity 1st derivative terms included.
 Solvent              : Water, Eps=  78.355300 Eps(inf)=   1.777849
 ------------------------------------------------------------------------------
 Spheres list:
 ISph  on   Nord     Re0    Alpha      Xe            Ye            Ze
    1   C      1    1.9255  1.100      0.347345      0.014382      0.830601
    2   C      2    1.9255  1.100      1.578949     -0.102465      0.104747
    3   O      3    1.7500  1.100      1.700419     -0.351126     -1.084831
    4   C      4    1.9255  1.100     -0.868518     -0.271247      0.257118
    5   C      5    1.9255  1.100     -1.066560      2.385285     -0.717848
    6   H      6    1.4430  1.100     -0.888733      3.078685     -1.539541
    7   H      7    1.4430  1.100     -1.959405      2.688482     -0.175819
    8   H      8    1.4430  1.100     -0.209412      2.413305     -0.040277
    9   N      9    1.8300  1.100     -1.223938      1.020147     -1.188930
   10   H     10    1.4430  1.100     -2.123937      0.846724     -1.620195
   11   H     11    1.4430  1.100     -0.488912      0.755949     -1.836661
   12  Cl     12    1.9735  1.100     -2.270947     -0.000744      1.269782
   13  Cl     13    1.9735  1.100     -1.088840     -1.702331     -0.763921
   14   H     14    1.4430  1.100      0.358594      0.494114      1.796307
   15   O     15    1.7500  1.100      2.648315      0.139884      0.891988
   16   C     16    1.9255  1.100      3.919484      0.119143      0.252626
   17   H     17    1.4430  1.100      4.645694      0.343238      1.029577
   18   H     18    1.4430  1.100      4.124137     -0.861743     -0.176764
   19   H     19    1.4430  1.100      3.971843      0.871848     -0.534489
 ------------------------------------------------------------------------------
 One-electron integrals computed using PRISM.
   1 Symmetry operations used in ECPInt.
 ECPInt:  NShTT=   11325 NPrTT=   36321 LenC2=   10652 LenP2D=   25499.
 LDataN:  DoStor=T MaxTD1= 6 Len=  172
 NBasis=   376 RedAO= T EigKep=  8.02D-05  NBF=   376
 NBsUse=   376 1.00D-06 EigRej= -1.00D+00 NBFU=   376
 Initial guess from the checkpoint file:  "/beegfs/scratch/user/q/tla25/Gau-34650.chk"
 B after Tr=    -0.000000   -0.000000   -0.000000
         Rot=    1.000000   -0.000517    0.000113    0.000245 Ang=  -0.07 deg.
 Requested convergence on RMS density matrix=1.00D-08 within 128 cycles.
 Requested convergence on MAX density matrix=1.00D-06.
 Requested convergence on             energy=1.00D-06.
 No special actions if energy rises.
 Inv3:  Mode=1 IEnd=     7824675.
 Iteration    1 A*A^-1 deviation from unit magnitude is 4.44D-15 for   1602.
 Iteration    1 A*A^-1 deviation from orthogonality  is 2.77D-15 for    881    120.
 Iteration    1 A^-1*A deviation from unit magnitude is 4.44D-15 for   1613.
 Iteration    1 A^-1*A deviation from orthogonality  is 2.70D-14 for   1343   1308.
 Error on total polarization charges =  0.01248
 SCF Done:  E(RwB97XD) =  -1321.55990477     A.U. after    8 cycles
            NFock=  8  Conv=0.37D-08     -V/T= 2.0024
   1 Symmetry operations used in ECPInt.
 ECPInt:  NShTT=   11325 NPrTT=   36321 LenC2=   10652 LenP2D=   25499.
 LDataN:  DoStor=T MaxTD1= 7 Len=  274
 D1PCM: PCM CHGder 1st derivatives, ID1Alg=3 FixD1E=F DoIter=F DoCFld=F I1PDM=0.
 Calling FoFJK, ICntrl=      2127 FMM=F ISym2X=0 I1Cent= 0 IOpClX= 0 NMat=1 NMatS=1 NMatT=0.
 ***** Axes restored to original set *****
 -------------------------------------------------------------------
 Center     Atomic                   Forces (Hartrees/Bohr)
 Number     Number              X              Y              Z
 -------------------------------------------------------------------
      1        6           0.000002352    0.000000333    0.000001262
      2        6           0.000000338   -0.000000481   -0.000000593
      3        8          -0.000002997    0.000000270   -0.000001531
      4        6           0.000000841    0.000000935    0.000002746
      5        6          -0.000001616    0.000002288    0.000000902
      6        1          -0.000003442    0.000002398   -0.000000334
      7        1          -0.000001720    0.000001664    0.000001460
      8        1          -0.000001687   -0.000001848   -0.000001934
      9        7          -0.000001815    0.000001489    0.000002258
     10        1          -0.000002154    0.000003480    0.000003531
     11        1          -0.000000439    0.000003111    0.000001746
     12       17           0.000002794   -0.000000341    0.000005554
     13       17           0.000001111    0.000001199    0.000005479
     14        1           0.000003070   -0.000002156    0.000000691
     15        8           0.000002143   -0.000002279   -0.000002537
     16        6           0.000000808   -0.000002286   -0.000003961
     17        1           0.000001910   -0.000003839   -0.000005872
     18        1           0.000000980   -0.000002209   -0.000003481
     19        1          -0.000000481   -0.000001726   -0.000005383
 -------------------------------------------------------------------
 Cartesian Forces:  Max     0.000005872 RMS     0.000002486

 GradGradGradGradGradGradGradGradGradGradGradGradGradGradGradGradGradGrad
 Berny optimization.
 FormGI is forming the generalized inverse of G from B-inverse, IUseBI=4.
 Internal  Forces:  Max     0.000005551 RMS     0.000001311
 Search for a saddle point.
 Step number   2 out of a maximum of   70
 All quantities printed in internal units (Hartrees-Bohrs-Radians)
 Swapping is turned off.
 Update second derivatives using D2CorX and points    1    2
 ITU=  0  0
     Eigenvalues ---   -0.03312   0.00133   0.00219   0.00322   0.00901
     Eigenvalues ---    0.00926   0.01046   0.01718   0.02029   0.03162
     Eigenvalues ---    0.04595   0.04842   0.05311   0.06191   0.07430
     Eigenvalues ---    0.08191   0.08287   0.08494   0.08853   0.11058
     Eigenvalues ---    0.12725   0.12979   0.13255   0.15089   0.15248
     Eigenvalues ---    0.17457   0.17920   0.18458   0.18551   0.18866
     Eigenvalues ---    0.19608   0.20598   0.21239   0.25529   0.26391
     Eigenvalues ---    0.28174   0.33423   0.34089   0.34187   0.34283
     Eigenvalues ---    0.34994   0.35147   0.37282   0.37338   0.37914
     Eigenvalues ---    0.40073   0.44967   0.45654   0.46818   0.51087
     Eigenvalues ---    0.79669
 Eigenvectors required to have negative eigenvalues:
                          R6        D7        D10       D5        R8
   1                   -0.87421   0.24520   0.22449   0.12845   0.12462
                          D8        A10       R2        A7        A11
   1                    0.10774   0.10189   0.09803   0.07977   0.07421
 RFO step:  Lambda0=8.382471800D-12 Lambda= 0.00000000D+00.
 Linear search not attempted -- option 19 set.
 Iteration  1 RMS(Cart)=  0.00028295 RMS(Int)=  0.00000004
 Iteration  2 RMS(Cart)=  0.00000006 RMS(Int)=  0.00000000
 Variable       Old X    -DE/DX   Delta X   Delta X   Delta X     New X
                                 (Linear)    (Quad)   (Total)
    R1        2.71053   0.00000   0.00000  -0.00000  -0.00000   2.71053
    R2        2.59711   0.00000   0.00000   0.00001   0.00001   2.59712
    R3        2.03780  -0.00000   0.00000  -0.00000  -0.00000   2.03780
    R4        2.30801  -0.00000   0.00000  -0.00000  -0.00000   2.30800
    R5        2.55080  -0.00000   0.00000   0.00001   0.00001   2.55081
    R6        3.72476  -0.00000   0.00000  -0.00012  -0.00012   3.72464
    R7        3.30862  -0.00000   0.00000   0.00002   0.00002   3.30865
    R8        3.34810   0.00000   0.00000   0.00001   0.00001   3.34811
    R9        2.05937   0.00000   0.00000  -0.00000  -0.00000   2.05937
   R10        2.05528  -0.00000   0.00000  -0.00000  -0.00000   2.05528
   R11        2.06542   0.00000   0.00000   0.00000   0.00000   2.06542
   R12        2.74517  -0.00000   0.00000   0.00000   0.00000   2.74517
   R13        1.91419  -0.00000   0.00000   0.00000   0.00000   1.91419
   R14        1.91751  -0.00000   0.00000  -0.00001  -0.00001   1.91750
   R15        2.68918   0.00000   0.00000  -0.00000  -0.00000   2.68918
   R16        2.05386   0.00000   0.00000   0.00000   0.00000   2.05386
   R17        2.06006   0.00000   0.00000   0.00000   0.00000   2.06006
   R18        2.06046  -0.00000   0.00000  -0.00000  -0.00000   2.06046
    A1        2.13122   0.00001   0.00000   0.00004   0.00004   2.13126
    A2        2.07199  -0.00000   0.00000  -0.00002  -0.00002   2.07197
    A3        2.06619  -0.00000   0.00000  -0.00002  -0.00002   2.06617
    A4        2.20790   0.00000   0.00000   0.00003   0.00003   2.20793
    A5        1.95032  -0.00000   0.00000  -0.00002  -0.00002   1.95031
    A6        2.12446  -0.00000   0.00000  -0.00001  -0.00001   2.12445
    A7        1.90656   0.00000   0.00000   0.00005   0.00005   1.90662
    A8        2.02104  -0.00000   0.00000  -0.00002  -0.00002   2.02101
    A9        2.11573   0.00000   0.00000   0.00000   0.00000   2.11573
   A10        1.75043  -0.00000   0.00000  -0.00004  -0.00004   1.75039
   A11        1.65489   0.00000   0.00000   0.00003   0.00003   1.65492
   A12        1.93746  -0.00000   0.00000  -0.00001  -0.00001   1.93745
   A13        1.90959  -0.00000   0.00000   0.00001   0.00001   1.90960
   A14        1.89985   0.00000   0.00000   0.00002   0.00002   1.89988
   A15        1.95099   0.00000   0.00000  -0.00000  -0.00000   1.95099
   A16        1.90466   0.00000   0.00000  -0.00000  -0.00000   1.90466
   A17        1.91203   0.00000   0.00000   0.00000   0.00000   1.91203
   A18        1.88608  -0.00000   0.00000  -0.00003  -0.00003   1.88605
   A19        1.93719  -0.00000   0.00000  -0.00006  -0.00006   1.93714
   A20        1.93948   0.00000   0.00000  -0.00005  -0.00005   1.93944
   A21        1.73869   0.00000   0.00000   0.00013   0.00013   1.73883
   A22        1.97709   0.00000   0.00000   0.00001   0.00001   1.97710
   A23        1.95326  -0.00000   0.00000  -0.00001  -0.00001   1.95325
   A24        1.90419  -0.00000   0.00000  -0.00001  -0.00001   1.90418
   A25        2.02976  -0.00000   0.00000  -0.00001  -0.00001   2.02976
   A26        1.84697   0.00000   0.00000   0.00000   0.00000   1.84697
   A27        1.93668  -0.00000   0.00000   0.00000   0.00000   1.93668
   A28        1.93603  -0.00000   0.00000   0.00000   0.00000   1.93603
   A29        1.91948   0.00000   0.00000  -0.00000  -0.00000   1.91948
   A30        1.91945   0.00000   0.00000   0.00000   0.00000   1.91945
   A31        1.90476   0.00000   0.00000  -0.00000  -0.00000   1.90476
    D1        0.10717  -0.00000   0.00000  -0.00008  -0.00008   0.10709
    D2       -3.06807   0.00000   0.00000  -0.00007  -0.00007  -3.06814
    D3       -2.85377  -0.00000   0.00000  -0.00012  -0.00012  -2.85388
    D4        0.25417  -0.00000   0.00000  -0.00010  -0.00010   0.25407
    D5       -1.13417  -0.00000   0.00000  -0.00013  -0.00013  -1.13429
    D6       -3.09353  -0.00000   0.00000  -0.00010  -0.00010  -3.09363
    D7        0.75768  -0.00000   0.00000  -0.00005  -0.00005   0.75763
    D8        1.82735  -0.00000   0.00000  -0.00010  -0.00010   1.82725
    D9       -0.13201   0.00000   0.00000  -0.00006  -0.00006  -0.13208
   D10       -2.56399   0.00000   0.00000  -0.00002  -0.00002  -2.56401
   D11       -3.08585  -0.00000   0.00000  -0.00001  -0.00001  -3.08586
   D12        0.02395   0.00000   0.00000  -0.00000  -0.00000   0.02395
   D13       -0.90496   0.00000   0.00000   0.00041   0.00041  -0.90455
   D14       -3.12183   0.00000   0.00000   0.00048   0.00048  -3.12135
   D15        1.15567   0.00000   0.00000   0.00044   0.00044   1.15611
   D16        1.22659   0.00000   0.00000   0.00038   0.00038   1.22698
   D17       -0.99027   0.00000   0.00000   0.00045   0.00045  -0.98982
   D18       -2.99596   0.00000   0.00000   0.00042   0.00042  -2.99555
   D19       -3.09496   0.00000   0.00000   0.00037   0.00037  -3.09458
   D20        0.97136   0.00000   0.00000   0.00044   0.00044   0.97181
   D21       -1.03433  -0.00000   0.00000   0.00041   0.00041  -1.03392
   D22        2.76963  -0.00000   0.00000  -0.00000  -0.00000   2.76963
   D23       -1.31749  -0.00000   0.00000  -0.00011  -0.00011  -1.31760
   D24        0.84416  -0.00000   0.00000  -0.00013  -0.00013   0.84403
   D25       -1.39388   0.00000   0.00000   0.00001   0.00001  -1.39388
   D26        0.80218   0.00000   0.00000  -0.00010  -0.00010   0.80208
   D27        2.96383   0.00000   0.00000  -0.00012  -0.00012   2.96371
   D28        0.67940  -0.00000   0.00000  -0.00001  -0.00001   0.67939
   D29        2.87546  -0.00000   0.00000  -0.00011  -0.00011   2.87535
   D30       -1.24608  -0.00000   0.00000  -0.00013  -0.00013  -1.24621
   D31        3.13036   0.00000   0.00000  -0.00000  -0.00000   3.13036
   D32       -1.07122   0.00000   0.00000  -0.00000  -0.00000  -1.07122
   D33        1.04915  -0.00000   0.00000  -0.00000  -0.00000   1.04915
         Item               Value     Threshold  Converged?
 Maximum Force            0.000006     0.000450     YES
 RMS     Force            0.000001     0.000300     YES
 Maximum Displacement     0.000983     0.001800     YES
 RMS     Displacement     0.000283     0.001200     YES
 Predicted change in Energy=-2.455899D-09
 Optimization completed.
    -- Stationary point found.
                           ----------------------------
                           !   Optimized Parameters   !
                           ! (Angstroms and Degrees)  !
 --------------------------                            --------------------------
 ! Name  Definition              Value          Derivative Info.                !
 --------------------------------------------------------------------------------
 ! R1    R(1,2)                  1.4344         -DE/DX =    0.0                 !
 ! R2    R(1,4)                  1.3743         -DE/DX =    0.0                 !
 ! R3    R(1,14)                 1.0784         -DE/DX =    0.0                 !
 ! R4    R(2,3)                  1.2213         -DE/DX =    0.0                 !
 ! R5    R(2,15)                 1.3498         -DE/DX =    0.0                 !
 ! R6    R(4,9)                  1.9711         -DE/DX =    0.0                 !
 ! R7    R(4,12)                 1.7508         -DE/DX =    0.0                 !
 ! R8    R(4,13)                 1.7717         -DE/DX =    0.0                 !
 ! R9    R(5,6)                  1.0898         -DE/DX =    0.0                 !
 ! R10   R(5,7)                  1.0876         -DE/DX =    0.0                 !
 ! R11   R(5,8)                  1.093          -DE/DX =    0.0                 !
 ! R12   R(5,9)                  1.4527         -DE/DX =    0.0                 !
 ! R13   R(9,10)                 1.0129         -DE/DX =    0.0                 !
 ! R14   R(9,11)                 1.0147         -DE/DX =    0.0                 !
 ! R15   R(15,16)                1.4231         -DE/DX =    0.0                 !
 ! R16   R(16,17)                1.0869         -DE/DX =    0.0                 !
 ! R17   R(16,18)                1.0901         -DE/DX =    0.0                 !
 ! R18   R(16,19)                1.0903         -DE/DX =    0.0                 !
 ! A1    A(2,1,4)              122.1099         -DE/DX =    0.0                 !
 ! A2    A(2,1,14)             118.716          -DE/DX =    0.0                 !
 ! A3    A(4,1,14)             118.3838         -DE/DX =    0.0                 !
 ! A4    A(1,2,3)              126.5035         -DE/DX =    0.0                 !
 ! A5    A(1,2,15)             111.7453         -DE/DX =    0.0                 !
 ! A6    A(3,2,15)             121.7228         -DE/DX =    0.0                 !
 ! A7    A(1,4,9)              109.2381         -DE/DX =    0.0                 !
 ! A8    A(1,4,12)             115.7968         -DE/DX =    0.0                 !
 ! A9    A(1,4,13)             121.2224         -DE/DX =    0.0                 !
 ! A10   A(9,4,12)             100.2921         -DE/DX =    0.0                 !
 ! A11   A(9,4,13)              94.818          -DE/DX =    0.0                 !
 ! A12   A(12,4,13)            111.0084         -DE/DX =    0.0                 !
 ! A13   A(6,5,7)              109.4114         -DE/DX =    0.0                 !
 ! A14   A(6,5,8)              108.8536         -DE/DX =    0.0                 !
[...]
 80,0.16466804,-0.05100065,0.04077876,-0.12546959,-0.03995263,-0.015941
 30,0.04331053,0.00687061,0.00802871,-0.02982256,0.03506317,-0.14509025
 ,0.20634606,-0.00175391,-0.00334393,-0.00072268,0.00139300,-0.00035256
 ,-0.00094136,-0.00021202,0.00023795,0.00033563,0.00061404,0.00202972,0
 .00121408,0.60677430,0.00687973,0.00140923,0.00157446,-0.00479980,-0.0
 0055449,0.00153093,0.00128261,0.00096094,-0.00124384,-0.00368885,-0.02
 017785,-0.00972068,0.01782918,0.51114186,-0.00705647,-0.00277938,-0.00
 219844,0.00559867,0.00059436,-0.00330686,-0.00091442,-0.00047883,0.002
 52700,0.00745983,0.00235163,0.01726591,-0.01841855,0.03314719,0.577424
 59,0.00131499,0.00029084,0.00036754,-0.00048822,0.00001407,0.00029483,
 0.00010341,0.00006871,-0.00017842,-0.00113211,-0.00190046,-0.00102215,
 -0.05505821,0.02560328,0.03578805,0.05309883,-0.00267809,0.00063910,-0
 .00094691,0.00205636,0.00049885,-0.00096176,-0.00044135,-0.00024295,0.
 00082428,0.00354903,0.00475527,0.00860954,0.02547673,-0.14718865,-0.12
 643306,-0.03061456,0.17000628,0.00152003,-0.00011315,0.00051368,-0.000
 74289,-0.00017226,0.00057337,0.00005130,0.00002477,-0.00043054,-0.0014
 2790,-0.00095478,-0.00290575,0.03560699,-0.13199684,-0.21258957,-0.037
 09317,0.13763274,0.22217511,0.00003830,-0.00070481,-0.00021100,0.00041
 994,0.00013267,-0.00011958,-0.00000669,0.00001613,0.00009022,-0.000716
 31,0.00014348,0.00048041,-0.24339285,-0.06263500,0.11501498,-0.0028234
 3,-0.00073059,0.00050733,0.25384913,-0.00036560,-0.00002381,-0.0003560
 7,0.00040312,0.00004406,0.00015252,-0.00026215,-0.00011725,-0.00010030
 ,-0.00028443,0.00112018,0.00213608,-0.05228860,-0.06797662,0.03197358,
 0.01714879,0.00695893,-0.00854318,0.06487859,0.08020395,0.00058880,-0.
 00045795,0.00006070,-0.00019598,-0.00000233,0.00002681,0.00015336,0.00
 009645,-0.00004546,-0.00098724,-0.00079682,-0.00119242,0.11050953,0.03
 614574,-0.11589024,0.02006631,0.00700754,-0.01030669,-0.12365984,-0.04
 386713,0.12127126,0.00083801,0.00112003,0.00042775,-0.00117532,-0.0004
 9230,0.00047374,0.00013006,0.00006862,-0.00032307,-0.00001646,-0.00201
 083,-0.00094335,-0.21269777,0.00131069,-0.12506281,0.00492379,-0.00090
 883,0.00431587,-0.01704683,0.00040176,-0.01619845,0.22654206,-0.000193
 37,0.00311580,-0.00013425,-0.00208907,-0.00068142,0.00078515,0.0003085
 7,0.00019667,-0.00070993,0.00298911,0.00040671,0.00324859,-0.00426845,
 -0.04803475,-0.00100790,-0.01615452,0.00125391,-0.01083607,-0.00525042
 ,0.00013081,-0.00597024,-0.00747339,0.05695296,0.00238505,0.00094429,-
 0.00005656,-0.00208329,-0.00029033,0.00140198,0.00036943,0.00032364,-0
 .00116747,-0.00096904,-0.00328139,-0.00145572,-0.12483953,0.00265211,-
 0.14663821,-0.01981366,0.00041055,-0.01379502,0.01343402,-0.00118283,0
 .01243041,0.14100166,-0.00883023,0.15746113,-0.02265363,-0.00937908,-0
 .02061401,0.01458870,0.00288037,-0.00882497,-0.00222604,-0.00263863,0.
 00531637,-0.02262874,0.02196036,0.01713918,-0.10526997,0.01741989,-0.0
 0600419,-0.00037240,0.00468251,-0.00266514,0.00712701,-0.03168508,0.00
 999138,-0.00298768,0.03229127,-0.01042797,0.76123853,-0.02227071,-0.00
 062063,-0.00846293,0.01544651,0.00271553,-0.00860353,-0.00293312,-0.00
 161269,0.00646649,0.01770924,0.01413482,0.04408401,0.00936514,-0.20994
 271,0.03217349,0.00563330,-0.03435904,0.01460081,0.00222806,-0.0154147
 4,0.00627314,0.00783506,-0.00724761,0.00805743,-0.02217401,0.41978704,
 -0.03800541,-0.00716698,-0.01644258,0.02314934,0.00488785,-0.01394178,
 -0.00444698,-0.00371614,0.01098800,0.01993859,0.04572465,0.02120105,-0
 .00101722,0.06980439,-0.10306919,0.00200442,-0.02400371,0.01433128,-0.
 00463619,0.01993502,-0.00683041,-0.00276925,0.02208271,-0.00644058,-0.
 02820015,-0.21181186,0.42909566,0.00296104,-0.00032380,0.00096625,-0.0
 0160498,-0.00052161,0.00146515,0.00019105,0.00011724,-0.00115155,-0.00
 158742,-0.00346068,-0.00425340,0.00158063,-0.00164775,0.00026609,-0.00
 012564,-0.00009994,0.00001778,0.00113729,-0.00033650,0.00037056,0.0017
 6218,-0.00030960,0.00086716,-0.36237710,0.06019830,-0.13112343,0.37813
 559,-0.00519066,-0.00133408,-0.00357985,0.00380304,0.00101289,-0.00214
 320,-0.00030895,-0.00055827,0.00150960,-0.00440346,0.00828428,0.003894
 00,0.03336231,-0.00637656,0.01641415,0.00028797,-0.00046191,-0.0002006
 9,-0.00075913,0.00151875,-0.00014013,-0.00059165,-0.00636841,0.0007375
 2,0.04168317,-0.05742505,0.03287972,-0.05894497,0.06300349,-0.00385032
 ,-0.00135570,-0.00321484,0.00262172,0.00096074,-0.00271814,0.00055758,
 0.00000319,0.00193376,-0.00605388,0.00520474,0.00069922,-0.00741892,-0
 .00248548,-0.00483953,0.00033384,-0.00052128,0.00037719,-0.00046311,-0
 .00010445,0.00005683,-0.00152080,0.00187901,-0.00139033,-0.15632499,0.
 04689820,-0.11130527,0.14760985,-0.04393522,0.10859385,-0.00365180,0.0
 0042794,-0.00022015,0.00176812,0.00137429,-0.00655486,0.00030745,0.000
 52949,0.00502896,0.00529226,0.00359978,0.00388881,0.00734776,0.0018501
 7,-0.00513323,0.00027850,0.00014358,-0.00009096,0.00123597,0.00187546,
 -0.00105479,0.00006734,-0.00002773,-0.00009224,-0.25894635,-0.06701044
 ,0.16446999,-0.02055206,-0.00817965,0.02429536,0.26616102,-0.00233995,
 0.00008422,0.00082324,0.00062350,0.00087339,-0.00331357,0.00067478,-0.
 00062142,0.00270505,0.00877003,0.00410724,-0.00358784,-0.02749154,-0.0
 1214178,0.02341342,-0.00071233,0.00117270,-0.00061740,0.00229399,-0.00
 570755,0.00219306,0.00052280,0.00070423,0.00035997,-0.05515672,-0.0686
 5504,0.06237272,0.00475254,0.00112679,-0.00588712,0.06688756,0.0820260
 1,-0.00077725,0.00019099,0.00074019,-0.00211036,-0.00016016,-0.0027621
 6,0.00167909,0.00074103,0.00108451,0.00723993,-0.00053551,-0.00811081,
 0.00596844,-0.00082645,-0.00613718,-0.00064565,-0.00031654,0.00126384,
 -0.00043741,0.00109258,0.00044757,0.00042568,0.00034419,-0.00009963,0.
 18764035,0.08177533,-0.20139347,-0.01555751,-0.00560687,0.01155127,-0.
 18426628,-0.07636947,0.20404645,-0.04317912,-0.00381755,0.02630690,0.0
 0589732,0.00387329,-0.00710608,-0.00145560,-0.00112537,0.00376820,-0.1
 1044393,-0.00923307,0.04009909,0.00026670,-0.00055284,0.00062513,0.000
 15242,0.00044599,-0.00029796,0.00022924,0.00051904,0.00020944,-0.00024
 555,-0.00010321,-0.00015427,-0.00288552,0.00139452,0.00689362,-0.00009
 516,0.00036338,0.00066053,0.00064537,0.00073805,0.00028292,0.15773584,
 -0.00152934,0.00612716,0.00019379,0.00270485,0.00592365,0.00071950,-0.
 00020145,-0.00092017,0.00056360,-0.01282911,-0.03223437,0.00994107,-0.
 00017785,-0.00009724,-0.00092547,0.00019594,0.00009241,-0.00010258,0.0
 0059019,-0.00050845,-0.00082217,0.00011728,-0.00007476,0.00012998,0.00
 618075,0.00016038,-0.00739208,0.00000863,0.00007761,0.00020345,-0.0003
 6520,-0.00136895,-0.00117432,0.01937142,0.03719587,0.00113686,0.001056
 22,0.00077571,-0.00120682,0.00208241,0.00180926,0.00008140,-0.00043918
 ,0.00026480,0.05577411,0.01019955,-0.06029884,0.00018387,0.00094056,-0
 .00164449,-0.00027396,-0.00072129,0.00046206,-0.00005850,-0.00075338,-
 0.00013117,0.00020414,-0.00020180,0.00008310,0.01449364,-0.00389726,-0
 .01781459,0.00020009,0.00018408,-0.00000656,-0.00113509,-0.00314585,-0
 .00222504,-0.08318757,-0.01967850,0.09695722,-0.00062640,0.01719532,-0
 .01602245,0.00225315,0.00009974,-0.00059523,-0.00395204,0.00251085,-0.
 00039588,-0.03860699,0.00341285,-0.00547131,0.00056147,-0.00037335,-0.
 00016436,0.00006333,-0.00000153,0.00002923,0.00004515,0.00020266,0.000
 03370,-0.00010395,-0.00015109,-0.00015975,0.00391924,-0.00097236,0.001
 53066,-0.00014129,0.00060152,0.00066352,0.00002029,0.00016688,-0.00043
 240,-0.00042983,-0.01430536,0.01445518,0.04128529,0.00554050,-0.009933
 44,0.01347702,-0.00257526,0.00116787,0.00280704,0.00162227,-0.00008339
 ,-0.00147965,0.01865029,-0.06764156,0.04748030,-0.00099387,-0.00085383
 ,-0.00862954,0.00016166,-0.00287919,0.00117408,-0.00029342,-0.00021640
 ,0.00024637,0.00042874,0.00046848,0.00058101,-0.00382389,-0.04045637,-
 0.00097652,0.00026192,-0.00191250,-0.00023953,-0.00023317,-0.00126142,
 0.00093437,-0.00988285,-0.01134011,0.01642719,-0.01194459,0.13800745,-
 0.01758472,0.01946103,-0.01238628,0.00980754,-0.00097776,-0.00928704,0
 .00015597,-0.00187345,0.00612351,-0.00703002,0.03316408,-0.05720717,-0
 .00016212,-0.00073918,-0.00011762,-0.00002936,-0.00015345,0.00006380,0
 .00004830,-0.00019924,-0.00001084,-0.00020067,-0.00036591,-0.00034498,
 0.00207877,-0.00566294,0.00487513,0.00012885,0.00092551,0.00063740,-0.
 00034508,0.00017628,0.00066326,0.01112995,0.02079016,-0.01893226,0.007
 04993,-0.07046245,0.08396180,-0.05099328,0.00110123,-0.00056725,0.0074
 6334,-0.01238566,0.02076431,-0.00604279,0.00044883,0.00547077,-0.00205
 304,0.01218308,-0.02303914,0.00023432,-0.00026106,-0.00003909,-0.00008
 089,-0.00008984,0.00002184,-0.00000021,-0.00002713,0.00003383,-0.00021
 835,-0.00020424,-0.00021640,-0.00098844,0.00043570,-0.00012879,0.00014
 785,-0.00026253,-0.00027656,-0.00018686,0.00002009,0.00008541,-0.00091
 215,0.00060989,-0.00143378,-0.00255249,0.00195146,-0.00173152,0.056455
 63,-0.00127797,-0.08063380,0.13690689,0.00656750,-0.00159045,-0.002276
 85,0.00011338,0.00317933,0.00261783,0.00187830,0.00361182,0.00680430,0
 .00031875,0.00026566,-0.00026334,0.00002497,-0.00034920,0.00015108,0.0
 0005328,-0.00006692,0.00010259,-0.00025166,-0.00072021,-0.00049978,-0.
 00376496,-0.00185458,-0.00375583,0.00025733,-0.00096105,-0.00073896,-0
 .00019440,0.00002493,0.00028452,-0.00204913,-0.00222992,-0.00162933,0.
 00336752,-0.00263576,0.00533709,-0.00404177,0.08456150,-0.00397889,0.1
 3348199,-0.28712186,-0.00233260,0.00521307,-0.01161251,0.00313766,0.00
 115857,0.00061407,0.00295064,0.00711923,-0.00658482,-0.00009127,0.0004
 3662,-0.00016326,0.00012226,-0.00018039,0.00019489,0.00003775,-0.00004
 978,0.00004670,0.00007508,-0.00047875,-0.00021671,-0.00163187,-0.00041
 669,-0.00127509,0.00010893,-0.00045457,-0.00031890,0.00001024,0.000083
 21,0.00022533,0.00106279,-0.00194379,0.00067182,0.00071566,-0.00156161
 ,0.00243313,0.00135201,-0.14126112,0.30235373,-0.08222065,0.01366690,-
 0.02254703,-0.19376624,0.02311350,-0.06115242,0.00241316,0.01122597,-0
 .05057344,0.01834495,0.00001868,0.02208823,-0.00040525,0.00204441,-0.0
 0214215,0.00016098,-0.00089140,0.00026359,-0.00011249,-0.00022089,0.00
 015956,0.00024443,0.00072352,0.00077136,-0.00638803,-0.00546232,-0.008
 56165,0.00062012,-0.00166602,-0.00091154,0.00051126,0.00043792,0.00114
 076,-0.00543295,-0.00046159,0.00083867,-0.00216257,0.00127251,-0.00365
 086,-0.00092794,-0.00113499,-0.00180365,0.52065220,0.00461527,0.011764
 23,0.00069621,0.01518556,-0.07188987,0.02180133,0.01482619,0.02105530,
 0.02587435,-0.00214505,0.00272907,-0.00040039,0.00029637,-0.00035470,0
 .00040566,-0.00004143,0.00007053,-0.00003595,0.00003876,0.00004638,-0.
 00000103,-0.00010038,-0.00011916,-0.00009033,0.00116909,0.00060292,0.0
 0065164,0.00008686,0.00029187,0.00004344,-0.00073513,-0.00038755,-0.00
 036776,0.00003473,-0.00049927,-0.00027345,0.00018666,-0.00041139,0.000
 51601,0.00053473,-0.00011099,-0.00058266,-0.03608805,0.08856139,-0.000
 94592,0.00037726,0.01436968,-0.03068352,0.01958908,-0.14650786,-0.0541
 2613,0.02494903,-0.07917745,0.00817568,0.00152715,0.00288932,-0.000197
 82,0.00069308,-0.00054451,0.00007675,-0.00021010,0.00006972,-0.0000192
 8,-0.00012296,0.00006142,0.00007805,0.00013968,0.00020477,-0.00180222,
 -0.00132759,-0.00177407,0.00006762,-0.00043012,-0.00004915,0.00111130,
 0.00074146,0.00061439,0.00029364,-0.00044079,-0.00004119,-0.00111791,0
 .00018590,-0.00034806,-0.00001337,-0.00148608,0.00063584,0.00822127,-0
 .05432704,0.33979493,0.00862589,0.00029077,-0.00270957,-0.07041844,0.0
 0623555,-0.00443951,0.00477042,-0.00344830,0.01450438,-0.00580370,-0.0
 0067070,-0.00441926,0.00006619,-0.00054895,0.00049989,-0.00003835,0.00
 023479,-0.00005661,0.00003552,0.00006823,-0.00003978,-0.00006390,-0.00
 019634,-0.00018551,0.00178152,0.00148809,0.00228569,-0.00014779,0.0004
 4541,0.00022590,-0.00029636,-0.00020539,-0.00035941,0.00089959,0.00016
 091,-0.00018351,0.00070358,-0.00035105,0.00092209,0.00053732,0.0002843
 0,0.00047131,-0.17468569,-0.00032333,0.04548718,0.49650050,0.00095926,
 0.00386103,0.00192713,0.00779749,-0.00099410,-0.00411973,0.00025865,-0
 .00452965,-0.00138841,-0.00028830,0.00133566,-0.00010122,0.00001872,-0
 .00006765,0.00005073,-0.00000617,0.00002703,-0.00001379,0.00000250,0.0
 0000705,-0.00000354,0.00000941,0.00001478,-0.00001315,0.00036600,0.000
 15971,0.00040191,-0.00002292,0.00008893,0.00007599,0.00003019,0.000011
 61,-0.00001596,0.00002411,-0.00031681,-0.00015441,0.00000212,-0.000039
 20,0.00005484,0.00001989,-0.00044296,-0.00056157,-0.00483370,-0.065764
 70,0.00835706,-0.00602430,0.59065994,-0.00607539,0.00225526,-0.0024521
 4,-0.01299944,-0.00336606,0.02147505,-0.00411015,0.00051300,-0.0057434
 3,0.00151343,-0.00004057,0.00245306,-0.00001747,0.00019797,-0.00018360
 ,0.00000718,-0.00008613,0.00001102,-0.00001451,-0.00002274,0.00001402,
 0.00003079,0.00010674,0.00006643,-0.00053654,-0.00041867,-0.00064500,0
 .00005120,-0.00015258,-0.00006212,0.00012603,0.00008443,0.00016230,-0.
 00094988,-0.00008786,0.00012075,-0.00025327,0.00011569,-0.00033392,-0.
 00024530,-0.00030470,0.00000203,0.07068040,0.00605410,-0.12456735,0.07
 120238,-0.00563143,0.58516629,-0.00208714,0.00057744,-0.00113902,-0.00
 035767,-0.00115473,0.00681656,0.00117764,0.00013449,-0.00117992,0.0007
 1690,-0.00006184,0.00109803,-0.00001242,0.00008881,-0.00009272,0.00000
 544,-0.00004089,0.00000967,-0.00000726,-0.00000888,0.00000590,0.000014
 58,0.00003888,0.00003134,-0.00026110,-0.00025484,-0.00038816,0.0000283
 2,-0.00006861,-0.00003640,0.00001803,0.00001367,0.00005237,-0.00034188
 ,-0.00001227,0.00004906,-0.00008453,0.00005298,-0.00015938,-0.00000465
 ,-0.00003703,-0.00000942,-0.03752065,0.00742718,-0.02065902,-0.1594569
 7,0.03595265,-0.12737100,0.18982227,0.00012539,0.00017439,-0.00000315,
 -0.00070972,0.00024888,0.00023192,0.00045417,0.00048702,-0.00009050,-0
 .00008214,0.00003446,-0.00007568,0.00000027,-0.00001322,0.00000918,-0.
 00000085,0.00000444,-0.00000087,0.00000021,0.00000173,-0.00000124,0.00
 000015,-0.00000222,-0.00000286,0.00002816,0.00002758,0.00005045,-0.000
 00274,0.00000624,0.00000095,-0.00000994,-0.00000584,-0.00001085,0.0000
 0835,-0.00002000,-0.00001243,0.00001248,-0.00000872,0.00002238,0.00000
 893,-0.00002015,-0.00000528,-0.00074840,0.00097131,-0.00099704,0.03858
 495,-0.06467749,0.04243581,-0.04142126,0.05986085,0.00039796,-0.000169
 26,0.00065608,0.00330327,0.00056439,-0.00374207,-0.00241442,-0.0000305
 7,0.00146390,0.00015949,0.00009023,-0.00010360,0.00000001,0.00001236,-
 0.00000282,0.00000163,-0.00000245,0.00000014,-0.00000051,-0.00000280,0
 .00000105,0.00000067,0.00000033,0.00000159,-0.00002151,-0.00002203,-0.
 00002560,0.00000060,-0.00000323,0.00000428,0.00002636,0.00001762,0.000
 01933,0.00008012,-0.00001186,-0.00001203,-0.00003226,0.00000194,0.0000
 1011,-0.00003179,-0.00001396,-0.00000039,0.01978290,-0.00447986,0.0139
 4296,-0.14021871,0.04351903,-0.20249344,0.13881748,-0.04627656,0.21033
 660,-0.00190597,0.00117198,0.00002364,0.00515902,-0.00300863,0.0056503
 1,-0.00012921,0.00039397,-0.00259100,0.00103920,0.00034000,0.00111615,
 -0.00000991,0.00008248,-0.00009698,0.00000728,-0.00004120,0.00001234,-
 0.00000620,-0.00000710,0.00000600,0.00001437,0.00003921,0.00003691,-0.
 00025382,-0.00029695,-0.00043275,0.00003458,-0.00006534,-0.00004325,-0
 .00002258,-0.00000644,0.00002116,-0.00022407,-0.00009224,0.00000310,-0
 .00010971,0.00006811,-0.00020014,0.00007333,-0.00014391,-0.00019919,-0
 .02253108,-0.02971567,0.01731102,-0.05412974,-0.03115830,0.01240079,0.
 00575186,0.01905579,-0.00656826,0.06544809,-0.00039390,-0.00036767,-0.
 00030151,0.00199334,0.00019382,0.00297894,0.00139991,0.00053423,-0.001
 37002,0.00017737,-0.00006122,0.00011808,-0.00000758,0.00001036,-0.0000
 1777,0.00000060,-0.00000545,0.00000342,-0.00000317,-0.00000048,-0.0000
 0051,0.00000567,0.00000824,0.00000132,-0.00008575,-0.00002609,-0.00004
 259,-0.00000190,-0.00002600,-0.00001741,0.00001295,0.00000419,0.000011
 45,-0.00003967,0.00001852,0.00001515,-0.00001570,0.00003152,-0.0000526
 4,-0.00001030,-0.00001221,-0.00004494,-0.00577142,0.00774141,0.0000509
 8,-0.03856853,-0.27575112,0.09238013,-0.00038814,-0.00350010,0.0002895
 5,0.04387397,0.28973713,0.00088858,-0.00013267,-0.00001316,-0.00391814
 ,0.00037951,-0.00162110,0.00036618,-0.00038863,0.00115424,-0.00056042,
 -0.00008115,-0.00042842,0.00000334,-0.00005012,0.00004437,-0.00000106,
 0.00002167,-0.00000268,0.00000403,0.00000691,-0.00000358,-0.00000769,-
 0.00002574,-0.00001764,0.00017189,0.00011498,0.00016858,-0.00000830,0.
 00004599,0.00001997,-0.00005063,-0.00003482,-0.00005232,0.00013362,0.0
 0001805,-0.00001742,0.00008770,-0.00005830,0.00010855,0.00002862,0.000
 07756,0.00009263,0.01352201,0.01285969,-0.00783250,0.01499488,0.090665
 95,-0.08800346,0.00381587,0.02075301,-0.00667477,-0.02510828,-0.103103
 33,0.09312116,-0.00195610,-0.00072222,-0.00045824,0.00531599,0.0002073
 4,0.00584940,-0.00037635,0.00055119,-0.00221414,0.00117078,-0.00010643
 ,0.00104413,-0.00002610,0.00011634,-0.00012768,0.00001027,-0.00005077,
 0.00001868,-0.00000528,-0.00001131,0.00000770,0.00001899,0.00003085,0.
 00004471,-0.00041618,-0.00035916,-0.00056232,0.00003281,-0.00010585,-0
 .00006850,0.00000264,0.00001056,0.00005015,-0.00018072,0.00003457,0.00
 005912,-0.00008170,0.00008765,-0.00022754,0.00004930,0.00003049,0.0000
 0255,-0.01679354,0.02474764,0.02874268,-0.04887959,-0.00310730,-0.0034
 3924,0.00259923,-0.01530379,-0.01328302,0.00179456,-0.00217776,-0.0043
 6220,0.05772100,0.00044463,-0.00037638,0.00015204,-0.00108101,0.001192
 85,-0.00272272,-0.00140301,0.00011980,0.00129067,-0.00014268,-0.000025
 71,-0.00020608,-0.00001075,-0.00000801,0.00000189,0.00000017,0.0000069
 4,0.00000064,-0.00000133,0.00000041,-0.00000181,0.00000884,-0.00000405
 ,-0.00000692,0.00004654,0.00002656,0.00007467,-0.00001041,0.00001297,0
 .00001545,0.00002423,0.00001427,0.00000942,0.00003081,0.00001446,0.000
 00172,0.00000538,-0.00000203,0.00003964,-0.00003130,-0.00001505,0.0000
 4845,0.00477538,0.00570324,0.00273103,0.00254387,-0.18358207,-0.134032
 39,-0.00083758,0.00643084,0.00651713,-0.00048971,-0.01852907,-0.021068
 58,-0.00387203,0.18902003,0.00120759,-0.00029952,0.00016580,-0.0045604
 9,0.00145211,-0.00257336,-0.00017241,-0.00012324,0.00172608,-0.0006605
 6,0.00002761,-0.00058545,0.00000505,-0.00007281,0.00006366,-0.00000536
 ,0.00003075,-0.00000585,0.00000289,0.00000816,-0.00000595,-0.00000735,
 -0.00002557,-0.00002658,0.00022200,0.00017965,0.00029794,-0.00002595,0
 .00005589,0.00003109,-0.00001376,-0.00001440,-0.00003783,0.00014982,0.
 00001981,-0.00002110,0.00007925,-0.00002333,0.00009149,-0.00003382,-0.
 00005191,0.00002334,0.01387401,-0.00834397,-0.01174090,0.00201816,-0.1
 3304942,-0.18498648,0.00033878,-0.01602723,-0.01338132,-0.00134157,0.0
 0910169,0.00995755,-0.01107627,0.14715575,0.20100786\\-0.00000231,-0.0
 0000034,-0.00000123,-0.00000033,0.00000047,0.00000064,0.00000300,-0.00
 000027,0.00000150,-0.00000081,-0.00000093,-0.00000270,0.00000162,-0.00
 000227,-0.00000091,0.00000344,-0.00000240,0.00000034,0.00000172,-0.000
 00166,-0.00000146,0.00000169,0.00000185,0.00000193,0.00000181,-0.00000
 155,-0.00000230,0.00000215,-0.00000348,-0.00000353,0.00000044,-0.00000
 311,-0.00000175,-0.00000284,0.00000033,-0.00000553,-0.00000112,-0.0000
 0115,-0.00000552,-0.00000307,0.00000217,-0.00000070,-0.00000216,0.0000
 0228,0.00000252,-0.00000079,0.00000229,0.00000396,-0.00000192,0.000003
 84,0.00000587,-0.00000098,0.00000221,0.00000349,0.00000048,0.00000173,
 0.00000539\\\@


 THIS CURIOUS WORLD WHICH WE INHABIT IS MORE WONDERFUL THAN IT IS CONVENIENT;
 MORE BEAUTIFUL THAN IT IS USEFUL;
 IT IS MORE TO BE ADMIRED THAN IT IS TO BE USED.

                                                                 -- THOREAU
 Job cpu time:       0 days  3 hours  7 minutes 40.3 seconds.
 Elapsed time:       0 days  0 hours 11 minutes 49.3 seconds.
 File lengths (MBytes):  RWF=    316 Int=      0 D2E=      0 Chk=     21 Scr=      1
 Normal termination of Gaussian 16 at Sun Feb 28 13:01:40 2021.
