11
Properties=species:S:1:pos:R:3:forces:R:3 Coordinates=T from=T ORCA-job=T run=T Energy:=T 16.3930626=T energy=-6378.383511032324 pbc="F F F"
C        1.13766386      -0.00343727      -0.13423900      -0.01244757       0.03852319       0.00599395
H        1.87698719       2.03613928      -0.29847786      -0.01803993       0.02023867       0.00951991
F       -1.78091304       0.40586606       0.26874792      -0.01026472      -0.00951125      -0.01712258
H        1.84993126      -0.33093416       0.63448237      -0.00361883      -0.01665958      -0.02173267
C        0.92880274       1.50591782      -0.10972265       0.01516604       0.00623626      -0.00988272
H        1.49972153      -0.31187693      -1.12136705      -0.00193250      -0.02289915       0.02834566
H        0.14465997      -0.42196345       0.05392655      -0.00488810      -0.01360859       0.00546625
H        0.57852224       1.77096301       0.90143842       0.03536109      -0.00854073      -0.01910685
N       -0.06198017       1.84234509      -1.13694623       0.01603796      -0.00158929       0.01655349
H       -0.27923946       2.83077490      -1.03573440      -0.01108726       0.02474829      -0.00751765
H       -0.90235613       1.32492564      -0.77416806      -0.00428618      -0.01693781       0.00948321
