13
Properties=species:S:1:pos:R:3:forces:R:3 Coordinates=T from=T ORCA-job=T run=T Energy:=T 34.7318345=T energy=-91719.73585529496 pbc="F F F"
C        0.11663066      -0.06302735      -0.17682202       0.00697518      -0.01220628      -0.00780789
H        1.62689847       1.35984199      -0.45199887       0.02211201       0.01500352       0.00338455
Br      -1.80543066      -0.25606567       0.07711986      -0.01314931       0.01996633       0.01555631
Cl       3.18086797       0.26191643       1.46916851      -0.00338965      -0.01276142       0.02032197
C        0.57604678       1.37809487      -0.12910600       0.01272097      -0.00359006      -0.00615261
H        0.35352914      -0.52248942      -1.13238340      -0.00994936       0.02171583      -0.03591671
H        0.61898278      -0.58864306       0.63262700       0.01981823      -0.01124948      -0.00209930
N        0.37580648       1.96034224       1.16841373      -0.00845600       0.00231728      -0.00560355
H        0.56092635       2.95484132       1.10716107       0.00152851      -0.00283669      -0.00342465
H        1.12516416       1.54875843       1.72963152      -0.01422890       0.02170739       0.00123951
N       -0.12599262       2.18893293      -1.19340446       0.01891046      -0.01046917      -0.01751423
O       -0.53905778       3.31059448      -0.90468046      -0.00919438      -0.01394941       0.00994216
O       -0.17565180       1.69224280      -2.31841650      -0.02369777      -0.01364783       0.02807444
