13
Properties=species:S:1:pos:R:3:forces:R:3 Coordinates=T from=T ORCA-job=T run=T Energy:=T 105.7493856=T energy=-88234.115837057 pbc="F F F"
C        1.01176332       0.10625045      -0.20817348       0.00954238       0.03192417       0.00042848
H        1.81702789       2.09594468      -0.13804049       0.02433717       0.01764949      -0.01308234
Br      -2.27997030      -0.90633352       0.96859236       0.00171289      -0.00411609      -0.00727660
Cl       2.33392509      -0.41812668       0.88720627      -0.00029661       0.00188305       0.02320327
C        0.82708201       1.62502232      -0.09582725      -0.00246279      -0.00357837       0.00530893
H        1.31373595      -0.17942174      -1.21504575       0.00078142      -0.00955021      -0.02879743
H        0.09623813      -0.41212708       0.09176257      -0.02013379      -0.01153883       0.02204330
C        0.11296798       2.02864279       1.19869103      -0.00563800      -0.01479046       0.01773455
H       -0.83820543       1.49801557       1.26865925      -0.03953546      -0.00820955      -0.00447248
H        0.72607315       1.74039625       2.05424848       0.02202605      -0.00228578       0.01481862
H       -0.05444287       3.10839697       1.23211499       0.01950367       0.00135790      -0.01506502
C        0.09982505       2.10761540      -1.27728613      -0.00109681      -0.01057240      -0.02461305
N       -0.42988032       2.51802450      -2.24286185      -0.00874016       0.01182708       0.00976978
