13
Properties=species:S:1:pos:R:3:forces:R:3 Coordinates=T from=T ORCA-job=T run=T Energy:=T 37.9956979=T energy=-14629.208883685069 pbc="F F F"
C        0.85516483       0.02832718       0.02203563       0.00180217      -0.02044326      -0.00571678
H        1.85502430       1.93003698      -0.07234999      -0.00290224       0.01315715       0.01191187
F       -1.67359415       0.11260706      -0.81327672      -0.00409566       0.00633631      -0.00639952
F        1.97063744      -0.40747149       0.75339923      -0.00360175       0.00527042      -0.00062142
C        0.82527678       1.54979384      -0.05443412       0.00298788       0.00152807      -0.01599450
H        0.94134337      -0.35494584      -0.99342731      -0.00334761       0.00529613       0.00458431
H       -0.07153915      -0.34296790       0.44900454       0.02301620      -0.02699631       0.00387840
N        0.34377978       2.07778134       1.33346992       0.01252903       0.04211322       0.00066110
O       -0.69611917       2.73208202       1.38277062       0.00837289       0.01769197       0.03727496
O        1.06465218       1.83803821       2.30452333      -0.02797368      -0.02271715      -0.00619573
N        0.02675957       1.97076153      -1.13102053      -0.00275634      -0.00770574      -0.01398947
H       -0.23129927       2.94252917      -1.01845985       0.01060686      -0.01125492      -0.00964249
H       -0.83044651       1.32632790      -1.12033477      -0.01463775      -0.00227589       0.00024927
