12
Properties=species:S:1:pos:R:3:forces:R:3 Coordinates=T from=T ORCA-job=T run=T Energy:=T 142.7214297=T energy=-146168.04581728496 pbc="F F F"
C        0.95301909       0.11233374      -0.02820180       0.09489285      -0.00611588      -0.00551732
H        1.81670286       2.03072901      -0.40142363      -0.02012232       0.03874084       0.03334881
Br      -2.39521017      -0.61215961      -0.79710469      -0.01848493       0.02917379       0.03943715
Br       2.63088785      -0.40208327       0.82324100       0.02652409      -0.11487460       0.07479503
C        0.84997471       1.63327188      -0.06915746      -0.02039128      -0.01429276      -0.07158014
H        0.95780848      -0.27934919      -1.04035047       0.06003768       0.02427705      -0.10701252
H        0.12676865      -0.34645023       0.50580252      -0.02636979      -0.01445185       0.09119461
C        0.63436292       2.16524481       1.30433565      -0.05766041       0.00182213      -0.02792777
N        0.46420940       2.63191502       2.37120173       0.00423382      -0.00262203      -0.09698076
N       -0.15998353       1.98734414      -1.05506893       0.00376738      -0.03337114       0.05375912
H       -0.41896195       2.96025945      -0.96455535      -0.06137036       0.08131267       0.04480813
H       -0.99091831       1.39992408      -0.93374861       0.01494331       0.01040175      -0.02832434
