14
Properties=species:S:1:pos:R:3:forces:R:3 Coordinates=T from=T ORCA-job=T run=T Energy:=T 19.2364601=T energy=-77435.98368526071 pbc="F F F"
C        0.19352581      -0.01537120      -0.12103426       0.02455803       0.03231828      -0.02832765
H        1.56374632       1.56340764      -0.19614679      -0.04000309      -0.07459118       0.07781511
F       -1.20933565      -0.20803915      -0.06025889      -0.04569212      -0.00997959      -0.00154841
Br       3.66943133      -0.28346146       0.74293894      -0.01922026       0.02888195       0.02644247
C        0.47846386       1.47050502      -0.08317349       0.05466091      -0.11205476      -0.05915291
H        0.54058069      -0.43994185      -1.06605664      -0.02609830       0.00275620       0.10206674
H        0.64526582      -0.54322146       0.72098656       0.01236531       0.09524958      -0.12446835
C        0.05321425       2.08351685       1.25335105       0.02872512      -0.03426786      -0.06640542
H       -1.02334136       1.97072498       1.40812689      -0.04659541      -0.07287416      -0.01666265
H        0.58368057       1.60034348       2.07666417       0.04378348       0.01228313       0.03302046
H        0.28360500       3.15145130       1.27412246       0.05974025       0.07781881       0.01307788
N       -0.15671831       2.09339292      -1.25841347      -0.04818534       0.03833729       0.14359406
H        0.08450172       3.07822086      -1.25435652      -0.00987590       0.04988478      -0.05498305
H       -1.16252966       2.04028202      -1.12562994       0.01183732      -0.03376247      -0.04446826
