14
Properties=species:S:1:pos:R:3:forces:R:3 Coordinates=T from=T ORCA-job=T run=T Energy:=T 24.7156492=T energy=-10141.057356038338 pbc="F F F"
C        1.08232933       0.07267490       0.13089490      -0.02826278       0.01694547      -0.00214469
H        1.84952293       2.07251372       0.12706797       0.02985997      -0.00839249      -0.01108913
F       -1.79902339       0.32553564      -0.45797429       0.00056479      -0.01287795       0.00428420
F        2.06716638      -0.36465504      -0.77156899       0.02153815       0.02034133       0.02088610
C        0.87141905       1.57213248       0.05220235      -0.00462165       0.03118305       0.01684227
H        0.12189863      -0.38709642      -0.11480237      -0.02633098      -0.02739185      -0.00849801
H        1.42859377      -0.22053529       1.13026741      -0.01504647      -0.00060541      -0.00970499
C       -0.03401567       1.97673540       1.22833649       0.01175797      -0.00327461      -0.00310770
H       -0.98119282       1.45177241       1.05143986       0.02887546       0.01626620       0.01552600
H        0.39349768       1.71805944       2.20810496      -0.02127709       0.00284056      -0.02560533
H       -0.20778386       3.06083798       1.20984250       0.01248647      -0.04254291      -0.00217725
N        0.25784601       1.87530586      -1.24424324      -0.00189755       0.00753572       0.02787827
H        0.02424949       2.86551493      -1.23902173      -0.01956646      -0.00812290      -0.02314343
H       -0.64395752       1.35037397      -1.18853582       0.01192019       0.00809579       0.00005370
