10
Properties=species:S:1:pos:R:3:forces:R:3 Coordinates=T from=T ORCA-job=T run=T Energy:=T 42.2635182=T energy=-10077.102332615481 pbc="F F F"
C        1.01617430      -0.03323819      -0.18341968       0.03179198      -0.01432529      -0.02331392
H        1.15289574       1.97504003       0.57816904       0.02561518      -0.00462459       0.01221186
F       -1.28965118       0.21816174       1.28485518      -0.01972553       0.02282117       0.00659962
F        2.33629580      -0.13642376      -0.67586020       0.03569165       0.00266054       0.00171453
C        0.52440789       1.38733255      -0.09725413      -0.02813634       0.00142068       0.02951518
H        0.37516050      -0.61482514      -0.84548349      -0.02939453      -0.00430948      -0.00755550
H        0.97510796      -0.46517394       0.81230003       0.00762687       0.00392627       0.01422950
H       -0.48440042       1.16471231       0.44956127      -0.00786306      -0.02035822      -0.01313941
C        0.42498023       2.05239637      -1.38142755      -0.01420646       0.00088144       0.00407026
N        0.31720919       2.59596804      -2.42018047      -0.00139977       0.01190750      -0.02433209
