16
Properties=species:S:1:pos:R:3:forces:R:3 Coordinates=T from=T ORCA-job=T run=T Energy:=T 56.2098379=T energy=-35287.98106992102 pbc="F F F"
C        0.92202270      -0.00701114       0.08376811      -0.01230098       0.01163380       0.00326600
H        1.72910315       1.92415418       0.47511204      -0.00548579      -0.02991696       0.01080166
Cl      -2.34208093       0.09751934      -1.22081882      -0.01010433      -0.01885513      -0.01616467
Cl       2.26665051      -0.47730207      -0.97854428      -0.01927391      -0.00072912       0.00916098
C        0.75884617       1.50423417       0.18447570      -0.00882074       0.00799401      -0.01343917
H        0.00355116      -0.47522825      -0.27824002       0.00665357      -0.00625697      -0.00436114
N        1.21947710      -0.59594242       1.43768547       0.03089698       0.01214051      -0.01321349
O        2.11520944      -0.07090396       2.09833144       0.00284889      -0.00332880       0.01730848
O        0.55125913      -1.56665102       1.78975058      -0.01174176       0.05023296      -0.00294805
C       -0.29562064       1.84564546       1.24727811       0.01585081      -0.01310454       0.00548915
H       -1.24716905       1.37640610       0.98485552       0.02005805       0.01628025      -0.02010551
H        0.00920254       1.54422350       2.25378793       0.00974723      -0.00555502       0.01118737
H       -0.43389707       2.93247534       1.25438950      -0.02012135      -0.03184263       0.01253924
N        0.42543525       1.97746491      -1.15618788      -0.01101734       0.00098253      -0.01965195
H        0.24445354       2.97397148      -1.10286850       0.03878535       0.01649604       0.00994706
H       -0.45747300       1.53601435      -1.42460491      -0.02597467      -0.00617094       0.01018405
