14
Properties=species:S:1:pos:R:3:forces:R:3 Coordinates=T from=T ORCA-job=T run=T Energy:=T 22.7937709=T energy=-33785.51728916181 pbc="F F F"
C        0.21325260      -0.04925053       0.16205251      -0.02615857      -0.00078326      -0.00711552
H        1.43495995       1.62134163       0.42088567      -0.01326594       0.00286901       0.00382865
Cl      -1.46605409      -0.53539119      -0.23066210       0.01308661       0.00745417       0.02252363
Cl       3.10126098      -0.02582534      -1.45621953       0.00451445      -0.03583533       0.00352148
C        0.39351489       1.44805954       0.14129835      -0.00023564      -0.02527822       0.00291302
H        0.89502010      -0.53931801      -0.53934654       0.00758571       0.02484437       0.03930959
H       -0.25662898       1.90723780       0.89260088      -0.00071190      -0.00976734      -0.02904905
N        0.51953448      -0.64227858       1.52553454       0.00480580       0.00618613       0.00167832
O        0.79843234       0.12913622       2.44298771      -0.02122162      -0.00940327      -0.01031475
O        0.47903044      -1.86497175       1.61795916       0.03439494      -0.00164958      -0.02385304
C        0.15864890       2.02118742      -1.25405602       0.00915730       0.01176769       0.01125157
H        0.85707264       1.55257060      -1.94916737      -0.02543413      -0.00367027      -0.00913242
H       -0.86922692       1.86656446      -1.59124950       0.01830807       0.00595683      -0.00244045
H        0.35821267       3.09581774      -1.24612776      -0.00482508       0.02730906      -0.00312102
