12
Properties=species:S:1:pos:R:3:forces:R:3 Coordinates=T from=T ORCA-job=T run=T Energy:=T 97.4695214=T energy=-92721.71877556322 pbc="F F F"
C        0.37858622      -0.06713529       0.15718376      -0.02938563       0.00503228      -0.03603880
H        1.70954657       1.48848190       0.69446425      -0.00714711       0.01521614      -0.04911560
Br      -1.39399496      -0.35624519      -0.56960920       0.00071667      -0.03682203      -0.01367829
Cl       3.20402995       0.13673365      -1.34758586      -0.04236239       0.00086815       0.00803297
C        0.69338842       1.40685506       0.30293549      -0.02785481      -0.01678948       0.02976471
H        1.11893436      -0.50757992      -0.52215548       0.01308095      -0.00145120       0.03777744
H        0.71772205       1.81827391      -0.71066437       0.03071917       0.02972946       0.09807226
N        0.48155306      -0.80229028       1.47168795       0.00861699      -0.03438608      -0.02003215
O        0.80577790      -0.14324739       2.45910285       0.02401419      -0.05586655       0.04206450
O        0.27996133      -2.01222865       1.45294245       0.00890538       0.07581843      -0.00784767
C       -0.25911442       2.13465616       1.14482377      -0.03191470       0.01601644      -0.05372372
N       -1.02816070       2.73625602       1.79852434       0.05261129       0.00263443      -0.03527566
