16
Properties=species:S:1:pos:R:3:forces:R:3 Coordinates=T from=T ORCA-job=T run=T Energy:=T 69.0324410=T energy=-22792.89147286135 pbc="F F F"
C        0.32516060       0.00842144      -0.00018663      -0.00724280       0.02121270       0.01034397
H        1.64391819       1.61491315      -0.06147123      -0.00847335       0.00756377       0.01094371
Cl      -1.37976694      -0.42777645       0.15736475       0.00274052       0.00853578      -0.00806342
H        2.09046089      -0.32026862       0.88687206       0.00462676      -0.00426966      -0.01499485
C        0.53826957       1.51766967      -0.05535847       0.00284592       0.01366494      -0.02066508
H        0.70442501      -0.47335435      -0.90563714      -0.03654970      -0.00516058       0.02728755
N        1.13347821      -0.65519838       1.12639884       0.00699644       0.00546018      -0.00706621
O        0.80871624      -0.11005475       2.32616771      -0.00543517       0.00072284       0.00657691
O        1.09470472      -1.97420123       0.99413798       0.01712495      -0.01204068      -0.01337131
N       -0.07818982       2.18228768       1.08935699       0.01260632      -0.01401809      -0.02017700
H        0.43819839       3.03945719       1.26083008      -0.00644654       0.00714855       0.02001240
H        0.11352792       1.53329742       1.86953909      -0.00519890       0.00356580       0.02384809
C        0.01346818       2.12199847      -1.35416137       0.00006663       0.00128257      -0.01193233
H        0.44903465       1.63598378      -2.23472887       0.00264506       0.00139176      -0.00107581
H       -1.07281183       2.02050342      -1.38260168       0.00706078      -0.02569355      -0.00673739
H        0.25274601       3.19085157      -1.39481211       0.01263307      -0.00936633       0.00507078
