14
Properties=species:S:1:pos:R:3:forces:R:3 Coordinates=T from=T ORCA-job=T run=T Energy:=T 164.4552620=T energy=-26930.57720628453 pbc="F F F"
C        0.83649048      -0.01654637       0.12635846      -0.02506074       0.01417778      -0.00250236
H        1.84148740       1.85947266       0.31744667       0.05809273       0.03860579       0.02862154
Cl      -2.10093262      -0.12563392      -1.56676319      -0.04574117       0.01048017       0.01897500
F        1.94772699      -0.37150301      -0.63714713      -0.02593267      -0.01916888       0.02545919
C        0.81567850       1.52187010       0.14585399       0.07200050      -0.01396361      -0.05326311
H       -0.06753623      -0.37422217      -0.38456297      -0.02446917      -0.00355734       0.00113509
C        0.97281263      -0.68542071       1.42818502      -0.01624278      -0.03344336       0.09279047
N        1.07508437      -1.31816828       2.41383474       0.02137883       0.02647661      -0.09635314
N        0.10741667       2.08141571       1.42067212      -0.02574987      -0.02766174      -0.06696685
O       -0.83586979       2.85062300       1.26543099      -0.01273597      -0.07568616      -0.00765688
O        0.62509365       1.78842523       2.49727512      -0.00251264       0.04599477       0.09778912
N        0.29515114       1.98539019      -1.06653710       0.03766383       0.04137994      -0.03614857
H        0.23986255       2.99191521      -1.10461563      -0.03759872       0.02756878       0.00590586
H       -0.60230571       1.54788236      -1.29553108       0.02690786      -0.03120275      -0.00778533
