14
Properties=species:S:1:pos:R:3:forces:R:3 Coordinates=T from=T ORCA-job=T run=T Energy:=T 61.9107405=T energy=-33240.750268933945 pbc="F F F"
C        0.21340547      -0.11715919       0.05522833      -0.00303642      -0.00440157       0.00929575
H        1.60942620       1.42162442       0.03567700       0.04091244      -0.00790373      -0.00055965
Cl      -1.53315143      -0.44812816      -0.27202737       0.00737661      -0.01577410      -0.00226716
Cl       3.36882477      -0.06801345      -0.51023523       0.00181886      -0.01146424      -0.01787813
C        0.51033630       1.39110960       0.06218390       0.01507608       0.00568379       0.00258583
H        0.80657075      -0.58592799      -0.73109157      -0.01545080      -0.00914475       0.00895824
C        0.54860646      -0.72008838       1.34311129       0.02606620      -0.01474575       0.02421175
N        0.73506485      -1.17845998       2.40921929      -0.00845372      -0.00788368      -0.00796994
C       -0.03991230       2.12843210       1.28277864      -0.02130731       0.00095512       0.01165866
H       -1.12207103       2.00722364       1.36469714      -0.03672376       0.00592758      -0.00928824
H        0.42916031       1.73825852       2.18784208       0.00487483       0.01610646       0.00957889
H        0.18582925       3.19399164       1.20477985       0.00563729      -0.00272544       0.01015399
C        0.02018775       2.00030907      -1.17407277      -0.01342625       0.03147538      -0.00799230
N       -0.39356735       2.54131815      -2.13166057      -0.00336406       0.01389494      -0.03048768
