15
Properties=species:S:1:pos:R:3:forces:R:3 Coordinates=T from=T ORCA-job=T run=T Energy:=T 34.7926170=T energy=-22441.81914944986 pbc="F F F"
C        0.52215286      -0.10047002       0.03296594       0.00175300       0.03041044       0.00354095
H        1.46958778       1.46087331      -0.99085751      -0.01013517      -0.00897479      -0.02016038
Cl       0.24862666      -1.02320718      -1.49633415       0.00248738      -0.01910002      -0.01095972
F        3.04385817       0.21836577       0.83879874      -0.00694472      -0.01163345       0.02193400
C        0.66269207       1.40111183      -0.24494420       0.00302869       0.02012695       0.01049748
H        1.53784153      -0.36703060       0.43173384       0.00562760      -0.01393660      -0.01265974
C       -0.56230141      -0.39373937       0.96031540       0.02383427       0.02076782       0.00882175
N       -1.44274799      -0.64074948       1.70047724      -0.01474390      -0.02426562      -0.01980002
N        1.05829007       1.95851801       1.04434861       0.00446553       0.01616883       0.03027032
H        1.24345446       2.94890788       0.91864229       0.00878975       0.01978283      -0.01258556
H        1.95978847       1.47352484       1.23085545       0.01223721      -0.01644974      -0.00383727
C       -0.60199166       2.06120378      -0.76889859      -0.00539271      -0.00851494       0.00765726
H       -0.92338646       1.62154299      -1.71667722      -0.01025877       0.00154698       0.00177175
H       -1.40253336       1.95829731      -0.03145017      -0.01498656       0.01423636       0.00201188
H       -0.42558118       3.13120091      -0.93165566       0.00023841      -0.02016504      -0.00650272
