16
Properties=species:S:1:pos:R:3:forces:R:3 Coordinates=T from=T ORCA-job=T run=T Energy:=T 16.1103625=T energy=-22006.639210076493 pbc="F F F"
C        0.21144136      -0.06761861       0.23196821       0.00251804      -0.03511493       0.00047236
H        1.60354112       1.49537347       0.29984478      -0.01982549       0.00163577      -0.01703579
F       -1.16697000      -0.28116756       0.06469039      -0.01035011      -0.00183850      -0.00184351
Cl       2.79720241      -0.37326625      -1.97041548       0.00284176      -0.01770531       0.00620960
C        0.51560344       1.42589118       0.18027159      -0.00632668      -0.04139794       0.00594786
H        0.75139593      -0.57626133      -0.57344317       0.02514302       0.02608174       0.00511525
C        0.58186177      -0.66124103       1.53018631      -0.01037658       0.01745431       0.01705975
N        0.85902053      -1.10609245       2.58159030      -0.00052712      -0.00740411       0.00068547
C       -0.19685148       2.19134101       1.29513141       0.01576559       0.00511554       0.00071562
H       -1.28230172       2.10025082       1.19058492       0.02517495      -0.01630875       0.00171237
H        0.08499161       1.82615108       2.28730112      -0.00406610      -0.00687968      -0.00922190
H        0.06005559       3.25299088       1.24293999      -0.00606357       0.02439141      -0.00394439
C        0.15608510       1.95439195      -1.20736026       0.00026363       0.01280809      -0.00168033
H        0.72199197       1.40168734      -1.95972435      -0.01581626       0.00797329      -0.00324246
H       -0.91718380       1.85084037      -1.39168766      -0.00001805      -0.00606213      -0.01075286
H        0.41760620       3.01334914      -1.28715809       0.00166296       0.03725120       0.00980296
