13
Properties=species:S:1:pos:R:3:forces:R:3 Coordinates=T from=T ORCA-job=T run=T Energy:=T 179.5080437=T energy=-95225.82229986912 pbc="F F F"
C        0.92102468      -0.07978170       0.04958916      -0.00339225      -0.01746021       0.01013145
H        1.72415972       1.91378924       0.19743219       0.01656991      -0.01462493       0.01578354
Br      -2.25445344      -0.00962592      -0.33426902      -0.02802357      -0.02550955      -0.00246753
Cl       2.46491276      -0.48851678      -0.78254011       0.01375692       0.01351930       0.00636875
C        0.73732570       1.44499221       0.09942096      -0.01451065       0.00831403      -0.01936029
H        0.07609029      -0.51039472      -0.50251722       0.00171944       0.02137135      -0.01227020
C        0.97659893      -0.63589051       1.39664249       0.01610754       0.01488185       0.01403489
N        1.08208033      -1.09236369       2.47493149      -0.00439560      -0.01187602       0.01092727
C       -0.09125145       1.93126305       1.19915989      -0.00993942      -0.03114523      -0.01236821
N       -0.57639188       2.40551200       2.15967918       0.01800436       0.01422605       0.01145557
N        0.22195131       1.98888212      -1.22699070      -0.01518661       0.00931454       0.01889319
O       -0.26879200       3.10919913      -1.18445076       0.02370155       0.02413518      -0.01689572
O        0.44647483       1.32230557      -2.22519755      -0.01441165      -0.00514636      -0.02423273
