13
Properties=species:S:1:pos:R:3:forces:R:3 Coordinates=T from=T ORCA-job=T run=T Energy:=T 151.0527874=T energy=-15439.744505482902 pbc="F F F"
C        0.75037973      -0.04295354       0.14547324      -0.04198983      -0.05682048      -0.04742420
H        1.85112246       1.76581862       0.71875664      -0.00084860       0.13809772       0.14791267
F       -1.90097846      -0.31684698      -0.47962613      -0.07962484      -0.02157196      -0.00445110
H        1.04009072      -0.40703062      -0.84076835      -0.09701573       0.02927138      -0.06471755
C        0.91174921       1.45026231       0.24435040       0.07555516      -0.12499358      -0.02428229
H       -0.99665851      -0.29379441      -0.14956673       0.11590513      -0.00250188       0.04719381
C        1.40378822      -0.77522206       1.17617439      -0.05342925       0.00638112       0.00698906
N        1.90078392      -1.41641446       2.03734759       0.04990800      -0.00747082       0.02985010
N       -0.15540388       2.07720697       1.16597356       0.02796213      -0.05286868      -0.05307235
O       -0.92848712       2.91293389       0.70399565      -0.02646291       0.02494468       0.01309545
O       -0.13887251       1.67664050       2.32524775       0.03583525       0.03933279      -0.05935271
C        0.82240922       2.07982259      -1.07415961      -0.06989821       0.01928439      -0.00558541
N        0.78842700       2.54676720      -2.15236841       0.06410369       0.00891532       0.01384453
