12
Properties=species:S:1:pos:R:3:forces:R:3 Coordinates=T from=T ORCA-job=T run=T Energy:=T 132.8605877=T energy=-92176.55214065195 pbc="F F F"
C        0.87392271      -0.07856149       0.12974968       0.00528631      -0.02601027      -0.01939477
H        1.70258124       1.87987941       0.44553573       0.00263541      -0.01330039       0.00527102
Br      -2.24595250      -0.19734616      -0.81564350       0.00561372      -0.01016573      -0.00572422
Cl       2.15446057      -0.51627770      -1.03851239       0.02018641       0.01075288      -0.01124736
C        0.72734856       1.45930772       0.16355083       0.00100150      -0.01739043       0.00053150
H       -0.08998805      -0.49151976      -0.22894935      -0.01665468       0.00020142       0.01654170
C        1.22886703      -0.58212504       1.45061868      -0.00860235       0.01676149      -0.00146078
N        1.52614815      -0.98258624       2.51588308      -0.00000395      -0.00690694       0.00286221
C       -0.23345731       1.87860485       1.19236269      -0.00305985      -0.00218840      -0.01291425
N       -0.88190531       2.27144828       2.08981754      -0.00685503       0.03154594       0.02239065
C        0.40179496       2.02351297      -1.15423939       0.01815724       0.01763089       0.01234903
N        0.30345966       2.58622314      -2.18089361      -0.01770476      -0.00093047      -0.00920474
