13
Properties=species:S:1:pos:R:3:forces:R:3 Coordinates=T from=T ORCA-job=T run=T Energy:=T 93.6756256=T energy=-148672.52083234975 pbc="F F F"
C        0.11793014      -0.12477825       0.17211869       0.03334434       0.01863928       0.05198354
H        1.54667830       1.40951973       0.21527796       0.06203001      -0.12145426       0.06965951
Br      -1.76291353      -0.42992390      -0.27538566       0.01199208      -0.06254759      -0.02613384
Br       3.46751726       0.47324848      -1.11929606      -0.15372664       0.07285549       0.00026941
C        0.44862377       1.37784983       0.14670197       0.05944415      -0.00275299       0.00714422
H        0.74687129      -0.58957272      -0.59421863      -0.12367577       0.02392671      -0.06160823
C        0.37180472      -0.73613532       1.46976542       0.07832292      -0.06903464      -0.05566665
N        0.56535747      -1.23661753       2.51527144       0.01289179      -0.00873924       0.09178258
C       -0.11925750       2.05447028       1.32349337      -0.02565098       0.11747859       0.02513209
N       -0.53179827       2.59743865       2.28397388      -0.01955793      -0.03000895      -0.19180796
N        0.06919296       1.93782698      -1.13951148       0.17053877       0.03068193       0.03791782
H        0.89276073       2.33450112      -1.57966163      -0.07792533      -0.05660510       0.05173569
H       -0.66837705       2.61959255      -1.05824940      -0.02802739       0.08756077      -0.00040820
