14
Properties=species:S:1:pos:R:3:forces:R:3 Coordinates=T from=T ORCA-job=T run=T Energy:=T 36.6270338=T energy=-23444.05896364558 pbc="F F F"
C        0.24896070      -0.08590475       0.22354977       0.00778025      -0.00938561      -0.01389108
H        1.60990704       1.47810521       0.37050932       0.00044771       0.03041424      -0.00004102
Cl      -1.48305834      -0.44886316      -0.11613749      -0.00182747       0.00536769      -0.00417280
F        1.94319044      -0.23499287      -1.69365170       0.00655701      -0.01416500      -0.00032597
C        0.52709574       1.42403884       0.20903917      -0.00028902      -0.00573889       0.00067885
H        0.93176749      -0.43778486      -0.65862424      -0.00121453       0.00039911      -0.03207955
C        0.61877257      -0.69241553       1.48867290       0.01056418       0.00275277       0.02264302
N        0.96477654      -1.18922332       2.49888110      -0.00810032      -0.00001163      -0.00763922
C       -0.15902156       2.14369699       1.28790508      -0.01488681       0.00891378       0.02095569
N       -0.71803134       2.74178879       2.13233339       0.00519210       0.00684278      -0.00250380
C        0.24377442       2.03574666      -1.16888258       0.00329353      -0.01311625       0.01965962
H        0.81746398       1.41652013      -1.86592864      -0.02624022       0.00671819       0.00364305
H       -0.82469680       2.00645497      -1.39380181       0.02701550       0.00903706      -0.01076879
H        0.58349913       3.07591288      -1.19557428      -0.00829191      -0.02802824       0.00384200
