14
Properties=species:S:1:pos:R:3:forces:R:3 Coordinates=T from=T ORCA-job=T run=T Energy:=T 104.1093565=T energy=-23444.901465718078 pbc="F F F"
C        0.93966717      -0.00241999       0.00898270      -0.00287131       0.05697963       0.05684099
H        1.86547183       1.86468839       0.40148951      -0.14655367      -0.00931428      -0.00146155
Cl      -2.42298063      -0.52093095      -0.19995650       0.08026041      -0.01097569       0.02402615
F        1.96144717      -0.31254174      -0.88138798       0.09140772      -0.09595600      -0.04472093
C        0.85299225       1.52215161       0.13247792      -0.00414760       0.05667603      -0.02977464
H       -0.00222859      -0.44392837      -0.33709475      -0.12217765       0.12101815       0.02397277
C        1.28919149      -0.53408413       1.33429125       0.10044844      -0.19235223       0.32629991
N        1.57614195      -0.88627454       2.42009872      -0.00771108       0.01073731      -0.23320354
C       -0.16430250       1.94955932       1.20800642       0.06154390       0.02603617      -0.02426327
H       -1.06396190       1.33007148       1.15100483       0.02598189       0.04016532      -0.15146177
H        0.28829690       1.84226804       2.19730060      -0.03246255      -0.01449981      -0.02999058
H       -0.43867874       2.99519744       1.05728693      -0.01384531       0.01345795       0.06083884
C        0.56801760       2.11186868      -1.18195979       0.01270656      -0.05651320       0.16221874
N        0.40691602       2.65534476      -2.20926988      -0.04257977       0.05454064      -0.13932112
