12
Properties=species:S:1:pos:R:3:forces:R:3 Coordinates=T from=T ORCA-job=T run=T Energy:=T 122.7939146=T energy=-78874.48224008748 pbc="F F F"
C        1.04018254      -0.03411109       0.02341635      -0.00827698      -0.00505678      -0.00770272
H        1.57278860       1.95655145       0.54397526      -0.01178921      -0.00230577       0.01796737
Br      -2.56518605       0.20790012      -0.66831648       0.00976170      -0.01393579       0.00486373
F        2.22438898      -0.20164700      -0.69319983      -0.02644378       0.00151723      -0.01151109
C        0.68868409       1.43960452       0.15233068       0.01331392      -0.00853669      -0.00931994
H        0.23193436      -0.55623801      -0.49583274       0.00046940       0.02765702      -0.01128442
H       -0.12705295       1.50996013       0.88623859       0.02091456      -0.00597994      -0.03324155
C        1.24856057      -0.65011704       1.34888987      -0.00864081      -0.01260484       0.04313710
N        1.44767797      -1.13058478       2.40207689       0.00207672       0.02519355      -0.01989267
N        0.35031289       1.96425846      -1.16642100      -0.00259685      -0.00038035       0.01250513
H        0.25413321       2.97061571      -1.09372681       0.01420765       0.01838064       0.01451773
H       -0.58037447       1.60119752      -1.37808079      -0.00299632      -0.02394828      -0.00003868
