15
Properties=species:S:1:pos:R:3:forces:R:3 Coordinates=T from=T ORCA-job=T run=T Energy:=T 109.1597291=T energy=-22442.968792360283 pbc="F F F"
C        0.06544285      -0.06915269       0.07150765      -0.05575822       0.01242311      -0.01456870
H        1.63479662       1.32232510      -0.01158336       0.01683843      -0.03138246       0.02149315
F       -1.34508916      -0.05639035      -0.03507322      -0.05478997      -0.01036666       0.00214588
Cl       3.62069517       0.10069249      -0.35851000       0.03412754      -0.00478618       0.01449937
C        0.53779963       1.37535008       0.04821582      -0.00297670      -0.00449487      -0.02473451
H        0.45136931      -0.53164426      -0.83928401       0.00424349      -0.02014762       0.03887443
C        0.45068241      -0.83688558       1.31067878      -0.02503575       0.03897443      -0.06979215
H        1.53953364      -0.87815284       1.36703453       0.03292651       0.00084417       0.01638961
H        0.03669236      -0.35543221       2.19939095       0.03118421       0.01793641       0.03574496
H        0.04617394      -1.84897939       1.25036788       0.03118123      -0.06050215      -0.02053304
C        0.13834618       2.07685184       1.28750591      -0.05672244       0.03658797      -0.00208858
N       -0.22644852       2.67540730       2.23241104       0.02326658       0.00126138       0.00157284
N        0.02498355       2.02443355      -1.15583149       0.01132326      -0.00140750      -0.03760638
H        0.46390762       2.92868832      -1.27084660       0.01858508       0.01503246       0.00682139
H       -0.97489563       2.15768862      -1.06906386      -0.00839325       0.01002751       0.03178174
