16
Properties=species:S:1:pos:R:3:forces:R:3 Coordinates=T from=T ORCA-job=T run=T Energy:=T 44.6174129=T energy=-31802.777741270158 pbc="F F F"
C        0.05736942      -0.07391727       0.15782752       0.02445048      -0.00062295       0.01016880
H        1.59449438       1.31569805       0.13540562       0.03803541       0.01533849      -0.00366877
Cl      -1.74546348      -0.19824676       0.02193941      -0.04459373      -0.01517890       0.00004437
Cl       3.24207310      -0.19186795      -1.00523486      -0.03786440       0.01817868      -0.00632505
C        0.49887893       1.38715997       0.09434475       0.03111676       0.00666574       0.00585463
H        0.47409020      -0.55922989      -0.72469397      -0.01647453      -0.01403431       0.00082397
C        0.52940281      -0.78549766       1.40842285       0.00033934      -0.00734451       0.00197067
H        1.62194856      -0.75284208       1.40817779      -0.01064851      -0.01289362      -0.00670609
H        0.13332076      -0.31284464       2.31182548      -0.00753475       0.00413444      -0.02880822
H        0.21041881      -1.82998680       1.38821391       0.01429710      -0.00045890       0.02044998
C        0.02160965       2.14757740       1.25276629       0.00425386       0.00106716      -0.02377626
N       -0.35058551       2.77321935       2.17621990      -0.01808007       0.00243154      -0.00534126
C        0.13972965       2.07686947      -1.22396515       0.00621553      -0.00321902       0.01394108
H        0.57253763       1.49269518      -2.03915692       0.01863735       0.01173186       0.01964126
H       -0.94162783       2.15368467      -1.35563198       0.00863208      -0.00104196       0.00821653
H        0.57472292       3.07897896      -1.25292065      -0.01078193      -0.00475373      -0.00648566
