13
Properties=species:S:1:pos:R:3:forces:R:3 Coordinates=T from=T ORCA-job=T run=T Energy:=T 137.4412502=T energy=-145731.85709794483 pbc="F F F"
C        0.95302313      -0.08814776       0.09691467       0.01407365      -0.02914697       0.00510386
H        1.78266973       1.93522564      -0.04744711      -0.00996793       0.00362886      -0.02682285
Br      -2.28194008       0.11371921      -0.83844622      -0.00311466       0.01267497      -0.02545712
Br       2.73324129      -0.56715223      -0.63471430       0.01244933       0.03170940       0.01295437
C        0.81265327       1.45314496       0.10131449       0.00777340      -0.02416440      -0.00240174
H        0.23948216      -0.48500445      -0.62268027      -0.00929692      -0.01244928       0.01281436
H        0.14141721       1.72954967      -0.71643456      -0.02328916       0.01573354       0.04029688
C        0.75965533      -0.76266533       1.43874041      -0.00245360      -0.01032666       0.00148739
H        1.41068342      -0.33928905       2.20863216      -0.00003232      -0.02385592      -0.00989269
H       -0.28657788      -0.62217315       1.72348686       0.01375413       0.02009361       0.01432195
H        0.95379650      -1.83364259       1.35384830      -0.01155100       0.00341846       0.00607792
C        0.26434283       1.98764041       1.35005514       0.00988387       0.04255856      -0.01988338
N       -0.09386690       2.46009463       2.36449039       0.00177123      -0.02987418      -0.00859898
