14
Properties=species:S:1:pos:R:3:forces:R:3 Coordinates=T from=T ORCA-job=T run=T Energy:=T 41.4900699=T energy=-78791.44570918816 pbc="F F F"
C        0.67706011       0.01152275       0.12522081       0.01352592       0.06549507       0.04257854
H        2.15955980       1.49426697       0.68895015       0.05247806      -0.00058441       0.00369887
Br      -2.59737831      -0.76820666      -1.50748086       0.04182570      -0.00638184       0.00578204
H        1.28548353      -0.34918610      -0.71522904      -0.06134406      -0.02451501       0.04232215
C        1.12812670       1.45455758       0.32950007       0.02968630       0.06394196       0.00955739
H       -0.36261836      -0.03224903      -0.22165334       0.02801411       0.02299072      -0.01300095
H        1.02708902       2.04295957      -0.57925340      -0.04796945      -0.01397188      -0.09445160
C        0.88610563      -0.88920081       1.34119120      -0.00892840       0.02358554      -0.00356898
H        1.89539408      -0.77885741       1.75650794      -0.03402611      -0.03562362      -0.01224955
H        0.17181129      -0.65369526       2.13108625       0.02748252      -0.00627373       0.00339290
H        0.73693769      -1.93390785       1.05715842      -0.02625677       0.02563836      -0.02144403
N        0.34544883       2.20317569       1.36252642      -0.04673880      -0.02289601       0.01030583
O       -0.37918898       3.12647659       0.99180638       0.01595397      -0.06952895      -0.03701054
O        0.49598866       1.85801396       2.53599888       0.01629695      -0.02187620       0.06408790
