17
Properties=species:S:1:pos:R:3:forces:R:3 Coordinates=T from=T ORCA-job=T run=T Energy:=T 35.0807206=T energy=-21004.383023650586 pbc="F F F"
C       -0.10930323      -0.08638743       0.03047105       0.01548297      -0.00001418      -0.00387014
H        1.51165389       1.23257634      -0.22831090       0.03111216      -0.01692139       0.00887016
F       -1.51699681      -0.00500512       0.22408524      -0.03643051      -0.02950538       0.00758909
Cl       3.81935730       0.66340908       0.99189141       0.01574404      -0.00085746      -0.00229605
C        0.43580583       1.32604748      -0.05350401       0.01724601       0.01861707       0.00880940
H        0.01651894      -0.55333887      -0.95056155       0.01741332      -0.00378475      -0.02490812
C        0.48627207      -0.94328844       1.12194054      -0.00448030      -0.00172522       0.01123743
H        1.57782100      -0.91487925       1.05600468      -0.01452349       0.02097429      -0.00155375
H        0.20160012      -0.56642367       2.10647910      -0.03663694       0.00916468      -0.00868783
H        0.12624590      -1.97224544       1.02949086       0.00770404       0.00212423       0.00296007
C        0.24182675       2.10293956       1.24991273      -0.00663159      -0.00425043      -0.01084021
H       -0.81902666       2.13231271       1.52437002       0.02751652      -0.00083297       0.01830838
H        0.82544896       1.65769703       2.05902870      -0.00044704       0.03156495      -0.03811865
H        0.60054180       3.12989269       1.12207584      -0.01359817      -0.03877451      -0.00444700
N       -0.17488076       1.96410699      -1.23233667      -0.00621524      -0.00057197       0.02498939
H        0.24290731       2.88108795      -1.35099506      -0.01616196      -0.00781697       0.00649300
H       -1.16057242       2.10630841      -1.03470201       0.00290619       0.02261001       0.00546483
