16
Properties=species:S:1:pos:R:3:forces:R:3 Coordinates=T from=T ORCA-job=T run=T Energy:=T 53.2632236=T energy=-21439.57624242379 pbc="F F F"
C        0.50900237      -0.00693014      -0.05244304      -0.01511333      -0.02570554      -0.03406551
H        1.05913858       1.67260156      -1.23339173       0.00478135      -0.01116270       0.03759029
Cl      -0.40993642      -0.73173737      -1.45820676       0.02909935       0.01752805       0.03296108
F        3.04225893       0.02788549       1.02061284      -0.01151394      -0.01254858       0.00064835
C        0.58346606       1.51671235      -0.24799343      -0.00920908      -0.02507315      -0.00288898
H        1.53922157      -0.37838280      -0.07967754      -0.02370234      -0.00097700      -0.01034598
C       -0.11805792      -0.44229391       1.25221163       0.02543553       0.00256622      -0.00166184
H        0.54027505      -0.07092143       2.03624106       0.02329723      -0.01627375       0.02996105
H       -1.13183692      -0.05125787       1.38787262       0.01626209      -0.00405055      -0.03031995
H       -0.14819809      -1.53317653       1.30999321      -0.02359136       0.00130221      -0.00758949
N        1.34885616       2.02553755       0.87180602      -0.00427766       0.01395542      -0.04154084
H        1.70322057       2.93848713       0.60946398      -0.00401383       0.03162088       0.01868856
H        2.15519966       1.35868931       1.01580530      -0.03813879       0.01440751      -0.00492707
N       -0.69332308       2.23694905      -0.30079174       0.00900252      -0.00174587      -0.01220482
H       -1.10891672       2.15567912       0.62164196       0.02387015       0.03307053      -0.00033474
H       -1.30750980       1.78113849      -0.96918437      -0.00218790      -0.01691369       0.02602987
