14
Properties=species:S:1:pos:R:3:forces:R:3 Coordinates=T from=T ORCA-job=T run=T Energy:=T 8.7095974=T energy=-78791.75965506835 pbc="F F F"
C        0.89598052      -0.12899192      -0.14549634      -0.00669731       0.02693872      -0.00886908
H        1.04117575       1.89216061       0.68598966       0.02405398      -0.01821658       0.01362613
Br      -2.69991734       0.33473977       1.34545128       0.00577205       0.00136916       0.01048727
H        1.85934925      -0.19056386      -0.66820216      -0.00392796       0.00342470       0.00491160
C        0.46030056       1.32702505      -0.04253423       0.00136822       0.01271861       0.00482807
H        0.15331409      -0.66383062      -0.74086463       0.01547484       0.01214833      -0.01891988
H       -0.60722689       1.37495306       0.20622152      -0.00090338      -0.01380851       0.00601070
C        0.99442998      -0.75193634       1.24569668      -0.00760735       0.00234173      -0.01203081
H        1.75227102      -0.24308542       1.85134634      -0.00312439      -0.00614851       0.00121390
H        0.02752573      -0.67818532       1.74735390      -0.01005844       0.00366811      -0.00649927
H        1.27293349      -1.80736920       1.17235167      -0.00358024      -0.00869450       0.02274392
N        0.66610920       2.03285643      -1.33746270       0.02167747      -0.00148798      -0.00756041
O        1.30759631       3.08826902      -1.33008641      -0.02960462       0.00608346       0.00123545
O        0.19044809       1.51926876      -2.34995445      -0.00284287      -0.02033674      -0.01117759
