14
Properties=species:S:1:pos:R:3:forces:R:3 Coordinates=T from=T ORCA-job=T run=T Energy:=T 63.5074728=T energy=-80942.56890665971 pbc="F F F"
C        0.06805991      -0.06910387       0.09473976      -0.01587048      -0.01076039      -0.02345094
H        2.19189119       0.96624360      -0.13681728      -0.02416627       0.02644003       0.00810195
Br      -1.99529713      -0.54881774      -0.03202851      -0.02980630       0.00866690      -0.01706806
F        3.04691657       0.57505273      -0.26567452       0.03237784       0.00657389       0.00436373
C        0.34086526       1.36241043       0.05086292      -0.02731951      -0.00504704       0.01075074
H        0.40303972      -0.55964769      -0.81766158       0.02946958      -0.01637756      -0.03240046
C        0.53692477      -0.78891326       1.34610204      -0.02232456       0.02053953      -0.01062702
H        1.62298078      -0.68408131       1.42771955      -0.03408905      -0.00541614      -0.01881886
H        0.06669089      -0.34847789       2.22724680       0.02066873      -0.02295172       0.03327618
H        0.27302618      -1.84753904       1.29965210       0.02783983       0.03019971       0.02393206
C        0.11358519       2.11678050       1.23791242      -0.00961254       0.02785371       0.03130965
N       -0.05073556       2.72046708       2.24051020       0.04028565      -0.01722903      -0.01568634
C        0.13382692       2.05250321      -1.17936468       0.00449478      -0.02850194      -0.02773227
N        0.00331525       2.60742322      -2.21435924       0.00805230      -0.01398995       0.03404965
