14
Properties=species:S:1:pos:R:3:forces:R:3 Coordinates=T from=T ORCA-job=T run=T Energy:=T 59.0260102=T energy=-22878.097284185158 pbc="F F F"
C        0.09836798      -0.13450294       0.05218549       0.01657506       0.02255037       0.00671169
H        1.62844389       1.21604390       0.07560677      -0.03286887       0.00201100      -0.00867102
Cl      -1.74544720      -0.24887889       0.04018299       0.00166956      -0.03191396       0.00895394
F        2.95140571       0.12012109       0.37921995      -0.00124570       0.00266923       0.00864865
C        0.51712278       1.32573196       0.03700769      -0.01148844       0.01979849      -0.00346960
H        0.37631736      -0.55146700      -0.92244865      -0.00006161       0.03734742       0.02085890
N        0.64910344      -0.76450419       1.20190365       0.01538835      -0.01493619      -0.03240647
H        1.67972521      -0.53550420       1.08457019      -0.02984709      -0.00434618       0.00143120
H        0.53191281      -1.76778115       1.10723836      -0.00286655      -0.01869172       0.01578524
C        0.04833763       2.02745956       1.24638488       0.00495572      -0.00723078       0.00670607
N       -0.34579068       2.69471217       2.13188872       0.01992343       0.00098913      -0.01279144
N        0.09089973       1.98730641      -1.19570712      -0.00020757       0.00138243      -0.01124915
H        0.56853088       2.87775532      -1.26783114       0.01540243      -0.00367359       0.00551958
H       -0.90468953       2.17764795      -1.14425180       0.00467129      -0.00595565      -0.00602757
