13
Properties=species:S:1:pos:R:3:forces:R:3 Coordinates=T from=T ORCA-job=T run=T Energy:=T 63.8013813=T energy=-11930.8059109541 pbc="F F F"
C        0.01115897      -0.07586966       0.02112790      -0.03652975      -0.04996081       0.01680566
H        1.71810620       1.17746896      -0.07367812       0.00776817       0.00537476      -0.02767489
F       -1.39426041       0.05474840       0.15857101       0.00494917       0.01064763      -0.00368259
H        3.12904270      -0.01407419       0.70505993       0.00219586       0.00717178      -0.01170885
C        0.61707716       1.30632622      -0.03338958      -0.02137945      -0.02900576      -0.01127655
H        0.13257320      -0.57364379      -0.94852752       0.00258449       0.01608164       0.00506516
H        0.33509197       1.89139347       0.83875906      -0.01580400      -0.05593753       0.02964295
N        0.55727553      -0.75286648       1.14183306      -0.00426822       0.00092929      -0.00878799
H        1.59377549      -0.57376091       1.12647078       0.00268189       0.02289193       0.03150354
H        0.41993268      -1.75169085       1.02888688       0.01495847       0.02443054      -0.00121463
N        0.13599470       2.04967973      -1.21808989       0.06134582       0.05040146       0.01197554
O       -0.30733481       3.18989624      -1.04772165       0.00808052      -0.00857109      -0.02549621
O        0.23776662       1.50566286      -2.32039186      -0.02658297       0.00554617      -0.00515112
