13
Properties=species:S:1:pos:R:3:forces:R:3 Coordinates=T from=T ORCA-job=T run=T Energy:=T 26.0740483=T energy=-14629.56790147594 pbc="F F F"
C        1.10408243      -0.04613147      -0.13053305      -0.02555058       0.01048031      -0.00889872
H        0.94121454       1.94789022       0.64497134       0.00909443      -0.01639184      -0.02926973
F       -1.42699057      -0.06468722       1.42687132      -0.00877427       0.02660018       0.00893192
F        2.43153095       0.15178465      -0.58442786      -0.01035547       0.01324606      -0.02154327
C        0.40577883       1.29241338      -0.03969037       0.00368776       0.01812675       0.02786607
H        0.63250340      -0.64295205      -0.92192156       0.04212724      -0.01117323       0.01093453
H       -0.61585717       1.06069115       0.33288990       0.03201391       0.01005326      -0.01618200
N        1.10647793      -0.62587098       1.16687463      -0.02122202      -0.01316805      -0.00551451
H        1.29259068      -1.61782609       1.07494510       0.01689638      -0.02483166      -0.00288297
H        0.10970767      -0.50888946       1.49648882      -0.02127022       0.02533808      -0.01834364
N        0.38110842       1.96707269      -1.35701638      -0.00114647      -0.02928677       0.03642665
O        0.87107974       3.09673352      -1.44925656      -0.03979544       0.00352112       0.01428560
O       -0.14394686       1.36801166      -2.29880533       0.02429476      -0.01251421       0.00419006
