16
Properties=species:S:1:pos:R:3:forces:R:3 Coordinates=T from=T ORCA-job=T run=T Energy:=T 49.5879386=T energy=-82990.62981685127 pbc="F F F"
C        0.51589317       0.13215243      -0.01828160      -0.05150583       0.01361198      -0.02297680
H        1.45341578       2.01176628       0.05102389       0.03480197       0.09638387       0.00085876
F       -0.80848012      -0.33464107      -0.18531541      -0.04033825       0.02233768      -0.00851354
Br       2.99788310      -2.90788062      -0.18560779      -0.04481975       0.02990759       0.00254470
C        0.42318767       1.65868657       0.08944029       0.00634029      -0.01216649       0.03247637
H        1.06595360      -0.15639185      -0.91737405       0.04170308       0.03116240       0.04609074
N        1.15251394      -0.39072352       1.12713774      -0.07314057       0.04255692      -0.04748082
H        1.68083877      -1.23114433       0.87456347       0.01414783      -0.11768182       0.06422395
H        0.46887833      -0.59648710       1.84709476       0.09462826      -0.00438347      -0.06465968
C       -0.29682976       2.15141262       1.32529040      -0.00532884       0.03296502       0.00834640
H       -1.33594449       1.82054021       1.32204270       0.06369888      -0.03359471       0.04355922
H        0.22611435       1.76707776       2.20502047      -0.06022993       0.00775328      -0.07731525
H       -0.28241384       3.24286593       1.36405375      -0.04138856      -0.00240305       0.01021716
N       -0.21232212       2.20594369      -1.16008527       0.07182639      -0.04197054      -0.05476168
O       -1.36687412       2.63583190      -1.11082008       0.15066722      -0.06756368      -0.01109212
O        0.48484645       2.16619070      -2.17754339      -0.16106216       0.00308502       0.07848258
