15
Properties=species:S:1:pos:R:3:forces:R:3 Coordinates=T from=T ORCA-job=T run=T Energy:=T 58.3109746=T energy=-12646.360910341256 pbc="F F F"
C        0.04508215      -0.10196928       0.12664908       0.00280183      -0.00778298       0.00560802
H        1.62356152       1.21262466       0.08387308       0.00243639      -0.02221913      -0.02370020
F       -1.36416385      -0.14272076       0.20532106      -0.01071917      -0.00703178       0.01218131
F        2.87995323      -0.05157935       0.11054071       0.00723015      -0.00025831       0.00796670
C        0.51960446       1.34334804       0.04509284      -0.00553891      -0.00609927       0.01185739
H        0.28740783      -0.58563865      -0.83142221      -0.00217502       0.01477426       0.01124865
N        0.62534671      -0.72743631       1.26753655      -0.00781679      -0.01558713       0.00031083
H        1.64766497      -0.60130842       1.05722672       0.00664456       0.00880296       0.00460481
H        0.41931918      -1.72115850       1.22172815       0.00583267       0.00928271      -0.00645695
C        0.04973634       2.10959627       1.19882146      -0.00859406      -0.00645615      -0.02756740
N       -0.33604304       2.80103625       2.06821006       0.00107648       0.00105081       0.00877347
C        0.07790259       2.01346436      -1.25697156       0.00358063       0.01318464      -0.00034590
H        0.51933393       1.47956640      -2.10285101       0.00394077      -0.00297592       0.00117458
H       -1.01104152       1.99618904      -1.35504360      -0.00230029      -0.00271517      -0.00422934
H        0.41533551       3.05169625      -1.29739133       0.00360076       0.02403046      -0.00142597
