14
Properties=species:S:1:pos:R:3:forces:R:3 Coordinates=T from=T ORCA-job=T run=T Energy:=T 155.1550199=T energy=-22878.342832781822 pbc="F F F"
C        1.03130265       0.06733804      -0.03130839       0.01278810       0.06265685       0.10164929
H        1.72276933       2.05899625       0.26432889       0.02281978       0.00301766      -0.05770270
F       -1.42948270      -0.34286814       1.30952572      -0.01365232      -0.01115609      -0.00084455
Cl       2.56302028      -0.22629026      -0.97262043      -0.02920652      -0.03747999      -0.01447317
C        0.77620082       1.58952446      -0.02644436      -0.00133700      -0.03277351       0.01893637
H        0.23693792      -0.43828613      -0.59100582       0.05023105       0.00749217       0.04074835
N        1.17428688      -0.38460606       1.32854815      -0.02487829      -0.00617912      -0.05834330
H        1.52379684      -1.33717406       1.29025270       0.02426586      -0.02313661       0.01834778
H        0.15885668      -0.45945736       1.59988967       0.01419837       0.01684849      -0.00949031
N       -0.27917833       2.01463384       0.88492098       0.02592004      -0.02443794      -0.03371375
H        0.15997171       2.09747215       1.79377384       0.01203458      -0.00951538       0.04080512
H       -0.93393569       1.21039147       0.99118611      -0.09001325      -0.01246025      -0.01134210
C        0.46196895       2.03206927      -1.40016126       0.00205624       0.03509231       0.00613902
N        0.20363466       2.37283653      -2.49408579      -0.00522666       0.03203142      -0.04071604
