13
Properties=species:S:1:pos:R:3:forces:R:3 Coordinates=T from=T ORCA-job=T run=T Energy:=T 49.3097784=T energy=-28476.745525209873 pbc="F F F"
C        0.98150775      -0.03237039       0.14145179       0.00027588      -0.02309968       0.02873648
H        1.33348909       2.00021646      -0.58606911      -0.01563059      -0.03201722       0.01968365
F       -1.78760355       0.66871277      -1.00001744       0.06652344       0.06526693       0.02340289
Cl       2.69104017      -0.59184921       0.83178601       0.02107748       0.00732456      -0.02756481
C        0.73827857       1.37838936       0.07049307      -0.08297685      -0.01406863      -0.04743744
H        0.29500371      -0.57114997       0.78110260       0.02060333      -0.04642615       0.05721414
H       -0.98573612       1.05737359      -0.66998887      -0.00587714      -0.00440995      -0.00146256
N        0.96688423      -0.69532266      -1.20555617       0.04522678       0.01497060      -0.03639846
O        1.40735706      -0.06097372      -2.16124442       0.02858376      -0.00936970      -0.03880863
O        0.53662486      -1.84658318      -1.25525302      -0.03574715       0.06811796       0.03642261
N        0.48132438       1.99083952       1.32076201      -0.01345220       0.00799543      -0.00363925
O        0.60688974       3.22669003       1.40887481      -0.01593030      -0.09702224      -0.02866148
O        0.09930009       1.28400740       2.27493871      -0.01267644       0.06273808       0.01851285
