15
Properties=species:S:1:pos:R:3:forces:R:3 Coordinates=T from=T ORCA-job=T run=T Energy:=T 62.2358190=T energy=-23228.54009457145 pbc="F F F"
C        0.31072875      -0.00000822      -0.17914470       0.01828881      -0.03579468      -0.06059628
H        1.52493044       1.61992643      -0.65515046      -0.01093032       0.00748820      -0.05735100
Cl      -1.30632100      -0.43166337       0.37501630      -0.09132285      -0.00115229       0.01685136
H        1.91797356      -0.25468562       1.84908482       0.01710616      -0.01936684      -0.00770910
C        0.50773911       1.50341420      -0.26575805       0.03112887      -0.00020456       0.00229423
H        1.06948499      -0.35119296       0.64233317       0.04517486      -0.01419325      -0.01803579
N        0.62083095      -0.64226498      -1.47638843      -0.00296189      -0.06433298       0.05082251
O        1.66213007      -0.25899700      -2.02264720       0.08674067       0.06667264       0.02969855
O       -0.07306278      -1.56667767      -1.90375436      -0.05827560      -0.02213945       0.01556319
N        0.37095505       2.03087291       1.09507322       0.01814404      -0.01864068      -0.10257114
H        0.87981506       2.90986428       1.12738044      -0.02188765       0.01561506       0.02171340
H        0.89658116       1.37548979       1.69748001      -0.05380063       0.04968557      -0.02635913
N       -0.40578719       2.09630703      -1.23713816       0.03306074       0.03721802       0.08813036
H       -0.07913995       3.02756954      -1.47393239      -0.00951313      -0.00217883       0.05004556
H       -1.29986823       2.20123564      -0.76712419      -0.00095209       0.00132406      -0.00249673
