13
Properties=species:S:1:pos:R:3:forces:R:3 Coordinates=T from=T ORCA-job=T run=T Energy:=T 27.5960206=T energy=-34221.47052911391 pbc="F F F"
C        0.29624709      -0.09638259      -0.22004032      -0.03065873      -0.03408231      -0.05393989
H        1.64792507       1.46114054      -0.62730989       0.00270195      -0.02002687       0.00914279
Cl      -1.35454211      -0.36311739       0.36593795      -0.01370422      -0.03680414       0.05419745
Cl       2.90153963      -0.24949158       1.77066493      -0.01899673       0.01697965      -0.00150075
C        0.62234890       1.37681582      -0.27242057      -0.01707124       0.00448160       0.00011911
H        1.00742065      -0.58745243       0.45747343       0.01622336      -0.04864886      -0.01236373
H        0.63057215       1.70725873       0.76780148       0.02592221       0.03932041       0.06032684
N        0.45861408      -0.74794429      -1.57891204       0.00955831       0.03519396      -0.01124613
O        1.28917990      -0.22941367      -2.32162880       0.05192437       0.03457482      -0.06774910
O       -0.16048186      -1.77616355      -1.83225266      -0.04810607       0.04386948       0.07281405
N       -0.31496145       2.11561842      -1.12687534       0.11234111       0.11647085      -0.01550727
H        0.20093417       2.78198032      -1.68862144      -0.02829664      -0.09211014       0.02216524
H       -0.94864623       2.64674167      -0.54391674      -0.06183767      -0.05921845      -0.05645861
