16
Properties=species:S:1:pos:R:3:forces:R:3 Coordinates=T from=T ORCA-job=T run=T Energy:=T 50.2267129=T energy=-92785.4897861597 pbc="F F F"
C        0.21806149      -0.04944620      -0.20654453      -0.01286603      -0.03445438      -0.03575392
H        1.46938110       1.57061385      -0.48270781      -0.03135145       0.05763226      -0.00361892
Br      -1.61024385      -0.52723738       0.24209207       0.03149426      -0.06989071      -0.02442374
Cl       2.84906043      -0.31349072       1.79621311       0.00211509      -0.02931461       0.00010226
C        0.41822321       1.45587900      -0.20637768      -0.00611855      -0.02406354       0.00138918
H        0.89350052      -0.52963406       0.51813413       0.00620939       0.03709773      -0.02684110
N        0.57411221      -0.62867367      -1.56641262      -0.02745445      -0.01481844      -0.02935580
O        1.43774898      -0.02530381      -2.19886849       0.01215946      -0.01978619       0.05414932
O        0.05645560      -1.68333789      -1.92083216      -0.02242288       0.04986950       0.05877067
C        0.22446246       2.03922006       1.18959288      -0.00635215      -0.01547339      -0.01620985
H       -0.81348018       1.91175434       1.51174126       0.00817758       0.06339759       0.02456101
H        0.89126645       1.54268727       1.89923677      -0.00179456       0.03423802      -0.03996397
H        0.45333540       3.11026507       1.15835706       0.01054714      -0.03319256       0.03935042
N       -0.42726094       2.06410053      -1.24308485       0.02208965       0.04999608       0.05124645
H        0.06371712       2.85071863      -1.64915130       0.00368483      -0.00391926      -0.00634942
H       -1.26981023       2.42504492      -0.80731785       0.01188266      -0.04731810      -0.04705259
