15
Properties=species:S:1:pos:R:3:forces:R:3 Coordinates=T from=T ORCA-job=T run=T Energy:=T 36.6063157=T energy=-26492.855586290854 pbc="F F F"
C        0.22012675      -0.02288841      -0.04801206      -0.06196703      -0.03613983      -0.01821501
H        1.61144891       1.48675035      -0.15693607       0.00022391       0.03966072      -0.02234409
Cl      -1.61716088      -0.21743157      -0.20860141       0.02630210       0.00677029      -0.01833880
F        2.49679775      -0.26635582       0.20040532       0.00203110       0.01588186       0.00863430
C        0.53018273       1.46406082      -0.03306854       0.00126420      -0.01942345       0.02161184
H        0.03458669       1.92241931      -0.89293603      -0.00499227      -0.02045766       0.03126633
N        0.74230346      -0.72074317      -1.29605435      -0.00515344       0.02995742       0.01346767
O        0.94703451      -0.01313409      -2.27551924       0.01369128       0.04112443       0.00009213
O        0.79248115      -1.94058767      -1.26940978      -0.02698449      -0.01365588       0.02134619
C        0.62761579      -0.75054991       1.14852888       0.04258937       0.01726770       0.00751978
N        0.58548299      -1.27215660       2.20603904      -0.03355797      -0.02311327       0.01813464
C        0.10933334       2.12597708       1.27646642      -0.00171658      -0.00807857      -0.00699295
H       -0.96713762       2.04835766       1.45161613       0.00641326      -0.03328526      -0.02062095
H        0.62708232       1.66309216       2.11965172       0.02308251       0.03201341      -0.02175501
H        0.36970210       3.18934986       1.25619995       0.01877406      -0.02852188      -0.01380607
