12
Properties=species:S:1:pos:R:3:forces:R:3 Coordinates=T from=T ORCA-job=T run=T Energy:=T 164.9169644=T energy=-35223.239104902095 pbc="F F F"
C        1.10786172      -0.05152723       0.03172474      -0.03497521      -0.00632284      -0.01370527
H        1.80247949       1.98404437       0.17247060      -0.01391567      -0.01350512       0.00865091
Cl      -1.94463985       0.19350226      -0.11109918      -0.00910715       0.01536214       0.00862087
Cl       2.90797233      -0.38693612       0.01797317       0.00010561       0.04071108      -0.00364356
C        0.85990254       1.45333970       0.02713459       0.00892970      -0.02964105       0.00246417
H        0.14270329       1.70710029       0.80308403       0.00756830      -0.01519283      -0.02745092
H        0.41631022       1.73023243      -0.92649767       0.02281452      -0.01903849       0.02164348
N        0.65190275      -0.76219036      -1.25920366      -0.01074165       0.01904364       0.00204127
O        0.67835140      -0.10070893      -2.28537257       0.01566386      -0.00211776       0.00691734
O        0.44190480      -1.96113779      -1.16375801      -0.00278150      -0.00357927       0.00530331
C        0.58545414      -0.75888790       1.19777504       0.01623527       0.00352455      -0.00422246
N        0.39120717      -1.30621072       2.22129892       0.00020390       0.01075596      -0.00661913
