18
Properties=species:S:1:pos:R:3:forces:R:3 Coordinates=T from=T ORCA-job=T run=T Energy:=T 52.4948097=T energy=-27559.859520200123 pbc="F F F"
C        0.96930254       0.01606954       0.04974901       0.01321885      -0.11457570       0.02838035
H        1.76118131       1.86543956      -0.39293586       0.03015010       0.00065697      -0.03128436
Cl      -2.14818211      -0.42329859      -0.50187476       0.01390134      -0.03435784      -0.03513985
F        2.28712647      -0.12881474       0.52038166       0.05952998       0.05817613      -0.03771679
C        0.75711249       1.52819813      -0.11141342       0.03415672      -0.07408564       0.00753415
N        1.04249784      -0.78967324      -1.24713365      -0.11719503      -0.07248888      -0.00625967
O        1.46359168      -0.19284687      -2.23491977       0.02369102       0.09579223       0.02427933
O        0.82809053      -1.99326800      -1.17262506       0.02287627       0.08971783       0.07368528
C        0.15902542      -0.68512025       1.05589911      -0.02824400       0.01057225      -0.02851184
N       -0.07268559      -1.17884193       2.10189120      -0.03839795      -0.02258530      -0.00750052
C        0.41302753       2.09294177       1.27145453      -0.00587886       0.02211795      -0.02350536
H       -0.58237406       1.75315135       1.56683017       0.00295541       0.00488456       0.00293651
H        1.13261820       1.78557270       2.03553460      -0.01628589      -0.00629838      -0.02978502
H        0.40175080       3.18430265       1.22082055       0.03481444       0.05341741       0.01842652
C       -0.21806766       2.05973020      -1.16211212       0.00024670      -0.01581415       0.04201286
H       -0.02988783       1.63091714      -2.14516519      -0.00913406       0.01351376       0.02962320
H       -1.24623126       1.84241196      -0.88906798      -0.01729234      -0.01133599      -0.00235487
H       -0.06349631       3.14426862      -1.21719302      -0.00311271       0.00269279      -0.02481993
