19
Properties=species:S:1:pos:R:3:forces:R:3 Coordinates=T from=T ORCA-job=T run=T Energy:=T 83.9632699=T energy=-16761.456858051362 pbc="F F F"
C       -0.01571608       0.01553063      -0.00039837      -0.02684117       0.05672678       0.00595279
H        1.58882501       1.33771466      -0.23282407       0.02872451      -0.05113626      -0.01014301
F       -1.41916515       0.02528424      -0.09019735      -0.01305835       0.09691772      -0.02694280
F        2.88004282       0.37302863       1.11869909       0.03961148       0.08994811       0.02354355
C        0.51625936       1.44883622      -0.05702770       0.02805206       0.06075027       0.03790703
N        0.36353853      -0.75386953      -1.28371772      -0.09212504       0.06297471      -0.02166640
O        0.98155265      -0.17261085      -2.17518328       0.11339787      -0.00495498       0.00339094
O       -0.03802890      -1.91317671      -1.36757462      -0.01327832      -0.02498755       0.05102140
C        0.41971917      -0.77816248       1.18916248      -0.05303753      -0.04166373       0.03638494
H        1.52448161      -0.62132752       1.28543175      -0.05587658      -0.06009185      -0.05746830
H       -0.06870359      -0.34074810       2.05993628       0.00156902       0.06193111       0.08289125
H        0.07183120      -1.80587874       1.10093432       0.10185794      -0.14240920      -0.12285426
C        0.42033025       2.08922729       1.33113539      -0.02446144      -0.01884736      -0.06499836
H       -0.56973139       1.96204357       1.79004540       0.06204229       0.02415156      -0.01856248
H        1.21294069       1.62486888       1.92556736      -0.06914556       0.10080232      -0.03278347
H        0.61334888       3.16174333       1.22141838       0.01369623      -0.10738298      -0.00534850
N       -0.10827798       2.29011419      -1.08673148      -0.01321601      -0.02786807       0.02078392
H       -1.10335648       2.10236700      -1.10467513      -0.10895068       0.01484911       0.10033849
H        0.24934941       2.01140530      -1.99068075       0.08103927      -0.08970970      -0.00144672
