14
Properties=species:S:1:pos:R:3:forces:R:3 Coordinates=T from=T ORCA-job=T run=T Energy:=T 45.1227495=T energy=-81486.230541913 pbc="F F F"
C        0.17653164       0.04150584       0.05511325      -0.02480616       0.01158074       0.01556207
H        1.86024343       1.19329949       0.03564900      -0.00182917       0.00644633       0.00571100
Br      -1.82126232       0.17018795      -0.11174247      -0.00861708       0.00696124       0.00793313
F        2.89568767      -0.32093881      -0.02984344       0.01386872       0.01130729       0.01503480
C        0.77935965       1.42173581       0.02599637      -0.00103862      -0.01166906       0.00081680
H        0.45715781       1.97048173       0.91571670       0.01124841      -0.01723427      -0.00597049
H        0.48645940       1.96761624      -0.87006567       0.00532262      -0.01724586       0.00886655
N        0.56989746      -0.72863383      -1.20457768       0.00173630      -0.00318196       0.00031894
O        0.78485059      -0.07585793      -2.21855792      -0.00929236       0.00062776      -0.01523263
O        0.54419224      -1.95210058      -1.14417435       0.00503688      -0.01067458      -0.00640692
C        0.53576876      -0.75717568       1.28088541      -0.00146266       0.00610158      -0.00954945
H        1.63605102      -0.81707746       1.19176695      -0.00591465      -0.00036096       0.01104971
H        0.21427339      -0.20921825       2.17136529       0.01025331       0.00178619      -0.01772684
H        0.07185923      -1.74268451       1.26622857       0.00549440       0.01555557      -0.01040667
