15
Properties=species:S:1:pos:R:3:forces:R:3 Coordinates=T from=T ORCA-job=T run=T Energy:=T 32.6073625=T energy=-87477.94640622381 pbc="F F F"
C        1.18435543      -0.14889060       0.04288627      -0.08914320       0.01851593       0.00656658
H        2.14147266       1.63737985       0.59316208       0.04560339       0.01229716      -0.00412848
Br      -2.39071908      -0.24780128       0.50367442      -0.04253858       0.04762262       0.01436451
F        2.51402519      -0.47796014      -0.25052164      -0.02421916       0.07908288       0.07023385
C        1.16712222       1.37250976       0.18420017       0.08228976      -0.02245711      -0.08154327
H        1.01937447       1.81470784      -0.79180067       0.06505667       0.06616618      -0.12701169
N        0.55106180      -0.57939925      -1.34386825      -0.02840208      -0.03396229       0.03189585
O        0.42588676       0.25032948      -2.23799628      -0.00563592       0.02514228       0.02983321
O        0.34472586      -1.78236303      -1.44660653      -0.00963847      -0.01485623      -0.04607186
N        0.73735952      -0.90023543       1.10693015      -0.17321838       0.03112999       0.08572448
H       -0.22777245      -0.60874432       1.33490189       0.17826849      -0.09422764      -0.05970328
H        0.68740293      -1.87312818       0.81347882       0.04278659       0.09213003       0.02222162
N        0.18755533       2.04263732       1.09492222      -0.01472930      -0.10591952       0.02525025
O       -0.45813064       2.96969041       0.61105747       0.01203298      -0.07755799       0.02069011
O        0.20453974       1.71485755       2.27742990      -0.03851280      -0.02310629       0.01167813
