13
Properties=species:S:1:pos:R:3:forces:R:3 Coordinates=T from=T ORCA-job=T run=T Energy:=T 55.3340475=T energy=-24426.7635165431 pbc="F F F"
C        0.13503389       0.00855750       0.13485944      -0.00293836       0.00317905       0.01979029
H        0.68969855       1.87309933       0.93703851      -0.02402768      -0.01572322      -0.00831838
F       -1.22395723       0.12223196       0.44263838      -0.01503956      -0.01106614       0.00448464
Cl       3.91892008      -0.24056662       0.46152997       0.00140745      -0.02027637       0.01863598
C        0.74926699       1.36635158      -0.02726896       0.01189815       0.01300575      -0.02272708
H        0.21418098       1.93000220      -0.78722906      -0.02460233       0.04302190       0.00626897
H        1.80083971       1.25423606      -0.29288161       0.03009120       0.00921360      -0.02666725
N        0.00861178      -0.69734328      -1.26843612      -0.02201644       0.01474661      -0.00431590
O       -0.06519189       0.00239879      -2.27556963      -0.00174220      -0.02585270      -0.01816869
O       -0.08340048      -1.92408944      -1.25340474       0.00859342       0.01999658      -0.01032408
N        0.77461202      -0.78855513       1.06512579       0.00403822      -0.00256037       0.03616428
H        1.79481762      -0.68266340       0.99462165       0.02456677      -0.01741389       0.00578754
H        0.50499798      -1.75778954       0.96051637       0.00977135      -0.01027079      -0.00061031
