14
Properties=species:S:1:pos:R:3:forces:R:3 Coordinates=T from=T ORCA-job=T run=T Energy:=T 582.8404458=T energy=-84429.18246821157 pbc="F F F"
C        1.21367570      -0.00976921      -0.07297304       0.01254393      -0.05966082      -0.05895035
H        1.04533658       1.93489679       0.70246258      -0.20621216      -0.14483678       0.05747663
Br      -2.38352962      -0.17397666       1.52621743       0.09000103       0.05024123      -0.03376258
F        2.58765456       0.08164965      -0.25445477       0.06122866       0.28215023       0.04251421
C        0.54717212       1.35922903      -0.08741669       0.09108744      -0.16621673      -0.10736656
H       -0.50829569       1.20015039       0.18672388       0.05069312       0.13826209       0.03114106
N        0.88502560      -0.86747244      -1.35055627       0.09076634      -0.00240551      -0.02867420
O        0.85748800      -0.30035580      -2.43711233      -0.14493853      -0.04608528      -0.01069699
O        0.82113714      -2.08124694      -1.17496234      -0.09936893      -0.06775718      -0.02085027
N        0.92979025      -0.67638290       1.09937301       0.11329648      -0.18701278       0.08114927
H        1.18244908      -1.65389164       0.99588568      -0.09157354       0.06393435       0.15489891
H       -0.06162349      -0.58745872       1.35794540      -0.01934460      -0.03647250       0.00317261
C        0.65688799       2.12382530      -1.32352886       0.03097145       0.03608592      -0.17985421
N        0.72087152       2.79028313      -2.28816365       0.02084925       0.13977376       0.06980248
