13
Properties=species:S:1:pos:R:3:forces:R:3 Coordinates=T from=T ORCA-job=T run=T Energy:=T 37.9466382=T energy=-14629.841224724305 pbc="F F F"
C        0.14440907       0.02456278       0.02816662      -0.01292036       0.00742399       0.01493771
H        1.88589125       1.19508725       0.00040479      -0.01043422      -0.00235331       0.01136974
F       -1.26484350       0.17948316      -0.01239164      -0.03513182      -0.01077416      -0.00468738
F        2.97832350      -0.17808475       1.13844181       0.01117467       0.01698219      -0.00016551
C        0.80917022       1.36982430      -0.05058132      -0.00697685       0.00119017       0.00719387
H        0.50879215       1.92397262       0.84039161       0.02192201       0.01156592       0.00504918
H        0.49829149       1.90214137      -0.94739754       0.02376768       0.00107859       0.00468159
N        0.30452549      -0.70822238      -1.38609962      -0.01752414      -0.02662363       0.01556426
O        0.30175761      -0.02931077      -2.41294542       0.01363430      -0.00589484      -0.00978846
O        0.36009222      -1.93791257      -1.37185342      -0.00353643      -0.00309841       0.00083058
N        0.56315697      -0.73415230       1.07572059       0.01520978       0.00446347      -0.00781471
H        1.66964555      -0.57850044       1.19792000      -0.01778067      -0.01326919      -0.00624984
H        0.28145798      -1.69980829       0.96238353       0.01859605       0.01930921      -0.03092101
