15
Properties=species:S:1:pos:R:3:forces:R:3 Coordinates=T from=T ORCA-job=T run=T Energy:=T 79.8005993=T energy=-17485.0472139754 pbc="F F F"
C        0.16432707      -0.10786009      -0.37228285       0.00000808       0.01598388       0.00771629
H        1.15950811       1.11402049      -1.85627370       0.01240547      -0.02081932      -0.00890934
F       -1.14563715      -0.11227934      -0.89753367       0.02391942      -0.01607548       0.01343995
H        2.51201538       0.53380675       1.50993880      -0.01575617      -0.00951144       0.00916781
C        0.89247473       1.14591104      -0.80706295      -0.02023414       0.00907210      -0.00199791
H        1.76991047       1.25229112      -0.13473424      -0.03619190      -0.01473461      -0.00416419
N        0.74723215      -1.33524974      -1.21667130       0.01813333       0.00885344      -0.01999763
O        1.35562318      -1.13334290      -2.26629797      -0.01440509      -0.01824904      -0.02352790
O        0.51202373      -2.44614305      -0.74541800       0.02062879      -0.01855246      -0.02154339
N        0.22621561      -0.32331890       0.96244916       0.01943173      -0.00215366      -0.00510541
H        1.20673340       0.01006952       1.33984266      -0.00347387      -0.01308653       0.01612994
H        0.00021542      -1.28204034       1.19853967      -0.01128351       0.02375276       0.02907066
N        0.02984586       2.34325936      -0.64147522       0.01373405       0.01950596       0.00692350
O       -0.48626649       2.55329961       0.45205217      -0.00107996       0.03342382       0.00256089
O       -0.08036147       3.08443647      -1.62559255      -0.00583624       0.00259059       0.00023672
