12
Properties=species:S:1:pos:R:3:forces:R:3 Coordinates=T from=T ORCA-job=T run=T Energy:=T 131.7775315=T energy=-88670.34499392624 pbc="F F F"
C        0.99308489      -0.04794699      -0.24473139      -0.02081896      -0.01051822       0.01930675
H        1.80808699       1.91831836      -0.55071213       0.02306642       0.01426331       0.01505962
Br      -2.26044758       0.45026610       1.20555231       0.01883029      -0.01283230       0.01532859
Cl       2.27419876      -0.57443869       0.90332725       0.04930796       0.00490721       0.02865660
C        0.86172829       1.47217318      -0.22876031       0.01172558      -0.01844355       0.00858215
H        0.05197211      -0.46119066       0.12913630      -0.06711618      -0.04181647      -0.01022150
H        0.66421005       1.74499635       0.81598221      -0.01156587       0.03603852      -0.02234376
C        1.31412933      -0.57540008      -1.56886807      -0.01876662       0.05561139       0.05303991
N        1.62087807      -1.01926052      -2.61190427       0.00602777      -0.02253296      -0.07890462
N       -0.20391558       1.82410246      -1.15758267       0.00798088       0.01625186      -0.00286865
H       -0.23389409       2.83314088      -1.25518380       0.02054066      -0.01893596      -0.00930521
H       -1.07469163       1.54391962      -0.70252536      -0.01921196      -0.00199285      -0.01632988
