14
Properties=species:S:1:pos:R:3:forces:R:3 Coordinates=T from=T ORCA-job=T run=T Energy:=T 85.9606908=T energy=-32674.567354837276 pbc="F F F"
C        0.84331849       0.01072489      -0.07526289       0.00219765      -0.03614995      -0.01685615
H        1.74811992       1.89748363      -0.57020228      -0.03308137      -0.00534176       0.00373160
Cl      -2.61297658      -0.20154175       0.10261625      -0.00166183       0.01212938       0.00823501
Cl       2.07096508      -0.56408103       1.11579575      -0.00139909      -0.00830959      -0.02147943
C        0.79943010       1.54449594      -0.12748296       0.00765592      -0.02438487       0.00906743
H       -0.14126613      -0.35217678       0.25040121       0.00243449       0.00374113      -0.00069867
C        1.19841672      -0.53462123      -1.38285787       0.00707678      -0.00088704      -0.00523456
N        1.55096907      -0.97335524      -2.41436052      -0.00945924      -0.01104854      -0.00456870
N        0.60206170       2.04998180       1.23506898       0.01825381       0.01868179      -0.02347887
H        0.36410050       3.03256808       1.17042259      -0.03421187       0.00372617       0.02530445
H        1.46391309       1.96670276       1.76401193      -0.02701840       0.04174706       0.00252076
N       -0.27189397       1.85809449      -1.03526242       0.03675588      -0.01088756       0.00830664
H       -0.37082885       2.85890705      -1.15043093      -0.00712217       0.01357193       0.01012737
H       -1.14907915       1.45327739      -0.69195684       0.03957945       0.00341185       0.00502312
