12
Properties=species:S:1:pos:R:3:forces:R:3 Coordinates=T from=T ORCA-job=T run=T Energy:=T 30.3042158=T energy=-35223.95678857586 pbc="F F F"
C        0.28266468      -0.08868324      -0.21587751      -0.00775549      -0.00052824      -0.01786370
H        1.79583499       1.35651773      -0.64855231      -0.01075092       0.01045214      -0.03188538
Cl      -1.41601731      -0.14682918       0.36935933       0.00756982      -0.00649806       0.01573819
Cl       3.00882544      -0.07869285       1.49041303      -0.01030292       0.00322477       0.01950821
C        0.76908202       1.34497652      -0.28131358      -0.01118719       0.02137299       0.01134582
H        0.92807715      -0.55174178       0.54431758       0.00335101       0.00541980      -0.02806359
H        0.74807824       1.78079712       0.71214211      -0.00158809       0.02502383       0.02884141
C        0.38863688      -0.83317126      -1.46678314       0.00263730      -0.02961503      -0.03534784
N        0.49142180      -1.48122551      -2.44194654      -0.00721864       0.00202629       0.02665930
N       -0.07418547       2.20007086      -1.17067035       0.00769237      -0.04445585      -0.00964509
O       -0.48637579       3.26522560      -0.71116213       0.01589410       0.01123311       0.03067447
O       -0.28507264       1.79563599      -2.31339648       0.01165865       0.00234425      -0.00996178
