14
Properties=species:S:1:pos:R:3:forces:R:3 Coordinates=T from=T ORCA-job=T run=T Energy:=T 98.8591431=T energy=-36726.35309966227 pbc="F F F"
C        0.13045814      -0.07241430      -0.10057676      -0.00211688      -0.02402239       0.00301211
H        1.62369392       1.39097138      -0.05900389      -0.00172737       0.00424221       0.00984173
Cl      -1.65703056      -0.23902295       0.14461889       0.00625940       0.00080484      -0.02239125
Cl       3.30187643      -0.07151147       0.57205634       0.01601279       0.01035890      -0.01139567
C        0.52496591       1.39858656      -0.11461795      -0.00254384      -0.02036465      -0.02364076
H        0.63827634      -0.56397991       0.72814143      -0.02531507       0.00024314       0.01502962
C        0.47339579      -0.71618908      -1.36545727       0.00900782       0.00548302       0.00798490
N        0.66288193      -1.26531811      -2.38692065      -0.00201632       0.01141935       0.02893052
N        0.07415897       2.00781692       1.22505207       0.03434503      -0.01250361      -0.01035908
O       -0.39537833       3.14709108       1.18806613       0.01269295       0.00472659       0.01362132
O        0.24551721       1.34399964       2.24093259      -0.01593109       0.00163745      -0.00945444
N        0.03160428       2.09963301      -1.24121730      -0.01245200       0.00985830       0.00186726
H        0.46417260       3.01021046      -1.30637832      -0.01520746      -0.00758106       0.00848695
H       -0.97184265       2.22062677      -1.18189531      -0.00100796       0.01569792      -0.01153320
