15
Properties=species:S:1:pos:R:3:forces:R:3 Coordinates=T from=T ORCA-job=T run=T Energy:=T 78.2305082=T energy=-147234.33603312625 pbc="F F F"
C        0.22239456      -0.09364616      -0.21911016       0.00163907       0.04897165      -0.03286573
H        1.62625515       1.40942135      -0.49311916       0.01935833      -0.01072577       0.06379113
Br      -1.67402749      -0.44553812       0.14975929      -0.00464076      -0.02585389       0.05384250
Br       3.10477882       0.07804860       1.91969599      -0.04006885      -0.01879953      -0.01566357
C        0.55744913       1.40346710      -0.22176201       0.00442855       0.02698499      -0.01280085
H        0.80265891      -0.56526560       0.57899822       0.01016034      -0.02449560       0.08666852
C        0.53999635      -0.72872881      -1.49306567      -0.07370138       0.01759790       0.05119915
N        0.76852593      -1.22818924      -2.53197440       0.06156618      -0.00623732      -0.09349442
N        0.31916806       1.92820983       1.11590871       0.02381035       0.00001001      -0.03126721
H        0.52921249       2.92110295       1.09673765      -0.00247273       0.02264869       0.01352277
H        1.01880423       1.50093872       1.72619523       0.03721065      -0.01590451      -0.01076557
C       -0.23000430       2.20275710      -1.24805041      -0.01129556       0.00355881      -0.02022631
H       -0.22173224       1.71732027      -2.22745636      -0.00232446       0.03721856      -0.02648474
H       -1.26105737       2.32356266      -0.91003908      -0.01949615      -0.03953588      -0.02391066
H        0.21346791       3.19845927      -1.35711773      -0.00417359      -0.01543812      -0.00154498
