12
Properties=species:S:1:pos:R:3:forces:R:3 Coordinates=T from=T ORCA-job=T run=T Energy:=T 62.9283036=T energy=-92721.81214960717 pbc="F F F"
C        0.94647649      -0.06040592       0.03504619      -0.00865854      -0.02519169      -0.02123173
H        1.26710744       1.98535439      -0.64648856      -0.00930480       0.01065073      -0.00494573
Br      -2.39588325      -0.21749128      -0.24265219      -0.00123221      -0.00650522      -0.02683146
Cl       2.56885056      -0.23674231       0.80664533      -0.02217657      -0.00438788      -0.00058037
C        0.55334995       1.39792811      -0.07123748      -0.02017311      -0.00590023      -0.01692538
H        0.20718811      -0.59111414       0.63585500       0.01932711       0.00477190       0.02189877
H       -0.45927530       1.41724813      -0.49426156      -0.00635098       0.03222696       0.02607660
C        1.01530476      -0.63290783      -1.30812683       0.01260435      -0.00751597      -0.03101797
N        1.15389682      -1.05418962      -2.39662854       0.00582775      -0.00420254       0.03692048
N        0.45483628       2.04243096       1.26924024       0.01268480       0.01952353      -0.00253595
O        0.63841775       3.26110377       1.29759087      -0.01826964      -0.06703559       0.02918601
O        0.15737007       1.34056574       2.23080749       0.03572176       0.05356600      -0.01001328
