13
Properties=species:S:1:pos:R:3:forces:R:3 Coordinates=T from=T ORCA-job=T run=T Energy:=T 57.8103977=T energy=-148672.46008508303 pbc="F F F"
C        0.19857018      -0.08294356      -0.13453680      -0.03340228      -0.00722458      -0.00965161
H        1.61482750       1.44326314      -0.22513140       0.01204774      -0.01128557       0.00813823
Br      -1.71874682      -0.37593080       0.23581454       0.03597042      -0.02838697       0.00145145
Br       3.36624421      -0.11699487       0.90796186       0.00182409       0.00121484       0.01216647
C        0.52261053       1.41377467      -0.12153283      -0.00715038      -0.00666833      -0.03351402
H        0.77839407      -0.57607823       0.65045333      -0.02575926      -0.00992006       0.00592133
C        0.49914924      -0.68027477      -1.42984736       0.01470196       0.01914349      -0.03602970
N        0.70407995      -1.18390869      -2.47219630      -0.00826884       0.00357755       0.02811508
C        0.18590618       1.98928678       1.19635830       0.00850345      -0.00861736       0.01435442
N       -0.14516948       2.52284487       2.19040417       0.00290489       0.03768133       0.00969216
N       -0.11275973       2.10173732      -1.23475049      -0.00369486      -0.00483193      -0.03811760
H        0.30142000       3.01840077      -1.34431417       0.01596269       0.02471996       0.00481942
H       -1.10314576       2.22166334      -1.05691282      -0.01363959      -0.00940238       0.03265438
