13
Properties=species:S:1:pos:R:3:forces:R:3 Coordinates=T from=T ORCA-job=T run=T Energy:=T 32.1752406=T energy=-30736.143783252588 pbc="F F F"
C        0.80368627      -0.05743388      -0.26768853       0.03658601      -0.02142762       0.01968448
H        0.77597828       1.82421152       0.68586530      -0.00390609      -0.00019892      -0.02192102
Cl      -0.87642101      -0.37578858       2.52835801      -0.00065144      -0.00910767       0.00927494
Cl       2.61394142      -0.10132930      -0.29614363      -0.01712784      -0.02927745       0.03072999
C        0.29918909       1.37786751      -0.19062965       0.01147896      -0.01800985      -0.00002681
H        0.47412404      -0.57514640       0.64418118       0.01310930       0.00677698      -0.01309433
H       -0.76403362       1.31218268       0.05973756       0.01847571      -0.02180634      -0.03085909
C        0.33169033      -0.74289757      -1.46833967      -0.04451533      -0.05435080      -0.04307867
N       -0.05085508      -1.25712618      -2.45472579      -0.00241460       0.01437075       0.05705576
C        0.54994618       2.18333827      -1.45895667      -0.01600285       0.01745376       0.00096682
H        1.60163372       2.13513470      -1.75355667      -0.01002471       0.07285372       0.01439325
H       -0.04900337       1.80368454      -2.29124555       0.00282383      -0.00410877       0.00020107
H        0.28184373       3.23070269      -1.30250591       0.01216904       0.04683221      -0.02332639
