15
Properties=species:S:1:pos:R:3:forces:R:3 Coordinates=T from=T ORCA-job=T run=T Energy:=T 194.1022897=T energy=-26493.091688138527 pbc="F F F"
C        0.90662585      -0.03714197      -0.02370376       0.03241691      -0.01608510      -0.00703280
H        1.73286914       1.93879498       0.15382583       0.00989966      -0.00407684       0.00157113
F       -1.36589306       0.19064142       0.12230931      -0.00492059      -0.01886582      -0.02896506
Cl       2.73151539      -0.42007362      -0.04042306      -0.02526672      -0.01960924       0.00164702
C        0.75144342       1.48991556      -0.04095237       0.01068773      -0.01646494      -0.01840855
H        0.53502469      -0.45372766       0.90156676       0.01971812       0.00822134      -0.00379879
C        0.33060452      -0.72642415      -1.17266603      -0.01967955       0.02261666       0.01140892
N        0.08932897      -1.32278468      -2.15849517       0.01978734       0.00395433       0.01380801
N       -0.03161691       1.91320288       1.17782969      -0.01106097      -0.01801943       0.00254343
O       -0.78223100       2.87663364       1.07583634       0.01426061       0.01640330       0.02076987
O        0.26306862       1.36456651       2.23641555      -0.01276345       0.02367745       0.00952420
C        0.15509284       2.05380549      -1.31022749      -0.01338226       0.00514383      -0.00512032
H        0.76642160       1.74843647      -2.16465446       0.00124410       0.00651863       0.01137492
H       -0.84875716       1.64134631      -1.39110754      -0.01414115      -0.00448903       0.00695021
H        0.12660310       3.14267881      -1.26309360      -0.00679979       0.01107486      -0.01627218
