13
Properties=species:S:1:pos:R:3:forces:R:3 Coordinates=T from=T ORCA-job=T run=T Energy:=T 124.6639700=T energy=-37727.997894615175 pbc="F F F"
C        0.13299307      -0.07497811      -0.03935299       0.00616365      -0.00679531       0.00031019
H        1.63495659       1.39757848      -0.01444827      -0.02057977       0.00284175       0.00532293
Cl      -1.65994424      -0.23606219       0.00619493      -0.02189492      -0.00153676       0.00299480
Cl       3.45975307       0.22142920       0.12745887      -0.00533588      -0.01070864       0.01662852
C        0.52706436       1.39434075      -0.04507189      -0.01889733      -0.00516823      -0.01473286
H        0.12714809       1.86174589       0.85634153       0.02271217      -0.00417375       0.01125687
C        0.61791704      -0.82804108      -1.18891455       0.02088384      -0.01885404       0.01010070
N        0.86304168      -1.42840461      -2.17005966      -0.00536960       0.00181991      -0.02375423
N        0.60588337      -0.74614748       1.26387352       0.01529233       0.01597162       0.00339527
O        0.60256249      -0.03467173       2.25704654       0.00881644      -0.00222588       0.01628112
O        0.83157244      -1.94424593       1.20759720      -0.00056759       0.01388430      -0.00864575
C        0.01808997       2.06640380      -1.23258047      -0.00314129      -0.00221793      -0.02023479
N       -0.39325795       2.62542302      -2.18081474       0.00191795       0.01716295       0.00107722
