13
Properties=species:S:1:pos:R:3:forces:R:3 Coordinates=T from=T ORCA-job=T run=T Energy:=T 89.1456602=T energy=-78678.43135337147 pbc="F F F"
C        0.35844123       0.02662309      -0.00336162      -0.32445948      -0.93850733      -0.04451297
H        1.39187086       1.84556426       0.16436319       0.09454504       0.83446522      -0.38206260
Br      -2.75261422       0.85725345      -0.14322668      -1.31489880      -0.17881154       0.36313812
H        6.71873224      -1.73738938      -0.05206783       0.47095823      -0.12428373      -0.01324560
C        0.34390211       1.56839468       0.01250872       0.46778140      -1.21414598      -0.14825314
H       -0.19449409       1.91821683       0.93627986       0.02429746      -0.32473744      -0.89325238
C        0.57571221      -0.73532072      -1.20831106      -0.44917586       0.50080967      -1.00614885
N        0.65922541      -1.27571277      -2.27714146       0.23425075       0.32986846       1.23560475
C        0.51147492      -0.74236008       1.19626087      -0.47892073       0.94798393       0.72878241
N        0.55598822      -1.21233812       2.30114621       0.24629333       0.06129260      -0.91177958
N       -0.19483160       2.08859439      -1.30630561      -0.06242940       0.27726333       1.89515264
H       -0.32605757       3.08479256      -1.12811947       0.51906601       0.34112603      -0.19339882
H       -1.18546005       1.80685183      -1.18723510       0.57269202      -0.51232321      -0.63002397
