14
Properties=species:S:1:pos:R:3:forces:R:3 Coordinates=T from=T ORCA-job=T run=T Energy:=T 36.8447591=T energy=-13648.277924907345 pbc="F F F"
C        1.04729433      -0.09984772      -0.15883854      -0.01241889       0.01687062      -0.01023151
H        1.12132850       1.84023394       0.72449566      -0.00343570      -0.01265474      -0.02409426
F       -1.61069837       0.49055710       1.13818159      -0.01306143       0.01273385      -0.01551039
F        2.39891453      -0.12352636      -0.57102801      -0.00483746      -0.01493696       0.01844872
C        0.54580179       1.33125969      -0.05728974       0.00086300       0.00501949      -0.01919684
H       -0.53602835       1.19566956       0.35026780      -0.01173392      -0.00478091       0.02157392
C        0.29904621      -0.83163673      -1.20508715       0.03249205      -0.02536244       0.00528306
N       -0.23865233      -1.45598328      -2.04248886      -0.01065319       0.01337026       0.00515367
C        0.90768068      -0.80433890       1.17650605       0.01101402       0.00683329      -0.01583330
H        1.57376025      -0.31273198       1.89207775      -0.00910903       0.00615448       0.01024566
H       -0.14169553      -0.65744968       1.47244980       0.02785217       0.00977433       0.01619362
H        1.18937402      -1.85654769       1.09117678      -0.00619247      -0.00324492      -0.02310309
C        0.66118443       2.06428692      -1.30649146       0.00503040      -0.02162600       0.02647173
N        0.73850985       2.67148513      -2.31150167      -0.00580954       0.01184965       0.00459901
