16
Properties=species:S:1:pos:R:3:forces:R:3 Coordinates=T from=T ORCA-job=T run=T Energy:=T 75.2834575=T energy=-12209.55708996582 pbc="F F F"
C        1.14849631      -0.05854952       0.09558705       0.01120583       0.01463739       0.00109700
H        1.15828732       1.86841229      -0.82107860       0.00050132      -0.01392539       0.01199217
F       -1.99031516       0.48644853       0.73450027      -0.02643415      -0.03638193       0.00318675
F        2.51344588       0.06652022       0.47417077      -0.00660812      -0.00639074       0.00592730
C        0.54964067       1.32876375      -0.08425349      -0.01345786       0.01710586       0.02445590
H       -0.47755675       1.16840891      -0.43196961      -0.00513248      -0.02282341      -0.00292307
C        1.18835061      -0.75005443      -1.21368434       0.01028529      -0.01224092      -0.02431456
N        1.24500349      -1.29855058      -2.25157895      -0.00523094       0.00083324      -0.00342407
C        0.41232641      -0.89752741       1.11987531      -0.00154944       0.02496084      -0.00692066
H        0.66943438      -0.50790668       2.10844973       0.00304655      -0.02358516       0.00421559
H       -0.67413968      -0.71802609       0.96932065       0.02594537       0.02568647      -0.00449298
H        0.72055423      -1.94569938       1.05702064      -0.02275033       0.01928234       0.00774514
C        0.40704232       2.07872946       1.23977366       0.00836615       0.01113353      -0.00012833
H       -0.48119741       1.65993009       1.71731404       0.00116705       0.00037536      -0.02143833
H        1.29887557       2.00081783       1.86988487       0.00660616       0.00441918       0.00066120
H        0.21805180       3.13973304       1.04379799       0.01403960      -0.00308666       0.00436094
