15
Properties=species:S:1:pos:R:3:forces:R:3 Coordinates=T from=T ORCA-job=T run=T Energy:=T 46.3149200=T energy=-22443.191693672095 pbc="F F F"
C       -0.01240275      -0.14507580      -0.03697164      -0.01048280      -0.01376029      -0.00621239
H        1.53430164       1.29557669      -0.22871059       0.04237018      -0.00148628      -0.03482376
F       -1.41837319      -0.15497883       0.15640121      -0.01952869      -0.00267836      -0.00264940
Cl       3.57238166       0.36095669       1.43385643      -0.00899038      -0.00720445       0.00210037
C        0.45467850       1.30460254      -0.06317897       0.01623932      -0.01638123      -0.03147445
H       -0.03187733       1.78824108      -0.91601649      -0.02422012       0.03667154       0.00682946
C        0.14315662      -0.76493999      -1.38772825      -0.00697645       0.02161009      -0.02591712
N        0.27380143      -1.27427767      -2.43970389       0.00414438       0.01050939       0.02036475
N        0.60647714      -0.88383947       0.99208214       0.01639575       0.03054229       0.00371828
H        1.55549243      -0.54124817       1.19207057      -0.00395803       0.00109799       0.02517344
H        0.63207132      -1.87447921       0.79241347      -0.00903407       0.01504992       0.03508786
C        0.15207181       2.04871301       1.23503139      -0.00030177      -0.03580082      -0.01908965
H       -0.92036600       2.06087582       1.44283027       0.00474800      -0.04141294       0.00791645
H        0.68157190       1.58334491       2.06597495       0.00212129       0.03454026      -0.00122755
H        0.50263482       3.08160840       1.14737940      -0.00252661      -0.03129712       0.02020372
