16
Properties=species:S:1:pos:R:3:forces:R:3 Coordinates=T from=T ORCA-job=T run=T Energy:=T 90.6097998=T energy=-22248.27917812939 pbc="F F F"
C        0.22024889      -0.10768954       0.09817684      -0.02679765       0.04066240       0.07816344
H        1.62215034       1.45372811       0.15490012      -0.02089189       0.00969178      -0.00828892
Cl      -1.54512959      -0.36499390      -0.02165265       0.02915265      -0.04041213       0.00933119
H        2.09253805      -0.68444140      -0.76087516       0.04805411      -0.00601484      -0.00276109
C        0.52273279       1.40170480       0.08741753      -0.00333422      -0.03671848      -0.00632606
C        0.98348914      -0.77541898      -1.14269309      -0.00431125      -0.08467118      -0.10912836
N        0.56939107      -1.25542007      -2.19365832       0.02963041       0.10729455       0.15108002
N        0.66269973      -0.65094088       1.38431376       0.00093493       0.04355225       0.01689444
H        1.68196694      -0.58516235       1.36789719      -0.00750779       0.01300976      -0.05343785
H        0.46760880      -1.65231683       1.36852855      -0.08406511       0.09795438      -0.07609334
C       -0.00507004       2.11052864       1.26310854      -0.00867472      -0.06724115      -0.06446362
N       -0.41986116       2.74931488       2.16034965       0.01299187      -0.05180421      -0.05393830
C        0.09979114       2.09414300      -1.21648119       0.03424504       0.00594380       0.02837565
H        0.62607756       1.62433916      -2.04914681      -0.05882003      -0.03377259       0.01314363
H       -0.97323046       1.99190224      -1.39149465       0.04704919      -0.02067736       0.08857945
H        0.35214680       3.15723311      -1.17442032       0.01234444       0.02320302      -0.01113028
