16
Properties=species:S:1:pos:R:3:forces:R:3 Coordinates=T from=T ORCA-job=T run=T Energy:=T 226.1014452=T energy=-24947.506776052935 pbc="F F F"
C        1.28709136       0.03500223       0.00024979       0.03755503       0.10436122      -0.04846599
H        1.75514748       2.08507554      -0.15519582      -0.04203392      -0.04305404      -0.13101074
Cl      -2.54138580      -0.61334136       1.48777340       0.00026376       0.04626462      -0.00916021
F        2.64767814       0.09456985       0.41968783      -0.10522175      -0.06544600       0.08358678
C        0.82204457       1.51506119      -0.06655108      -0.07404264       0.10381152       0.02630942
C        1.38733385      -0.56159668      -1.36491006       0.03091273      -0.05403745       0.08726822
N        1.43809978      -1.09646756      -2.41100090       0.04002524      -0.00607056      -0.04153519
N        0.55768335      -0.71776549       0.92164613       0.13687938       0.03415591      -0.05200422
H        0.71526659      -1.70676703       0.81820611      -0.01221063      -0.20153467      -0.02676894
H       -0.45628001      -0.54379363       1.01743331       0.04940061      -0.02406575      -0.04399999
C        0.09359219       1.95918876       1.20588357       0.00072477       0.04971885       0.05046582
H       -0.83763657       1.40237494       1.33685136       0.01469030       0.14923222       0.04464728
H        0.73856495       1.78202432       2.06809138      -0.02833292      -0.02319487       0.01314645
H       -0.12501649       3.02841170       1.13910516      -0.02711916      -0.01656168      -0.00174409
C        0.02779096       1.80310511      -1.26674739       0.03400593      -0.14640634       0.08605946
N       -0.57331435       2.05143812      -2.24491280      -0.05549673       0.09282703      -0.03679405
