16
Properties=species:S:1:pos:R:3:forces:R:3 Coordinates=T from=T ORCA-job=T run=T Energy:=T 55.8444345=T energy=-22792.709499205084 pbc="F F F"
C        0.39292805      -0.04400971      -0.16283360      -0.02253271       0.01466038       0.00540937
H        1.56099854       1.65935229      -0.53345809      -0.00788907      -0.00372992      -0.03321843
Cl      -1.28335673      -0.52184366       0.32783842       0.04763502      -0.00270537       0.01418458
H        2.75829538       0.98790495       1.51361763      -0.00111804      -0.01721059       0.01471521
C        0.53237483       1.48316156      -0.20567053       0.00180456       0.00269115       0.01283697
H        1.05894965      -0.30571345       0.66851222       0.00542709       0.00743314      -0.04176310
C        0.78198067      -0.78105186      -1.42931409      -0.01118457       0.00313412       0.01872669
H        0.14357287      -0.50825885      -2.27110023       0.00763360      -0.00083427       0.00135089
H        1.81867149      -0.53103961      -1.67222749      -0.02123419       0.04012250      -0.00120610
H        0.71744382      -1.85979938      -1.26983607      -0.01028042      -0.00881305       0.01553816
N        0.35547092       2.17425617       1.02358377      -0.02098764       0.00471009       0.00965227
H        1.23402315       1.92696051       1.52919871      -0.01741641      -0.00617093      -0.02419037
H       -0.43685785       1.78848247       1.52417538      -0.00953293      -0.01563878       0.01628730
N       -0.36613263       2.04582601      -1.28012573       0.01332594      -0.00494262      -0.00406695
O        0.04442707       1.98897404      -2.44529568       0.02120523      -0.01435517      -0.01090043
O       -1.46548923       2.48596853      -0.95112462       0.02514454       0.00164932       0.00664395
