16
Properties=species:S:1:pos:R:3:forces:R:3 Coordinates=T from=T ORCA-job=T run=T Energy:=T 46.9892663=T energy=-31236.339029056224 pbc="F F F"
C        0.88942115       0.05854359      -0.01915358       0.00764683      -0.01726228       0.01905032
H        1.68249319       1.94291400      -0.64409838       0.04127364       0.00977926       0.00045507
Cl      -2.61367624      -0.52945634      -0.22393725      -0.00251544       0.00951295      -0.01437713
Cl       2.40716015      -0.31727949       0.92235195      -0.01144883       0.00987055      -0.02934295
C        0.76683618       1.57405873      -0.14938612       0.00569328       0.00588260       0.00527454
H        0.05830069      -0.30123030       0.58877485      -0.00928160      -0.01886749      -0.00272811
C        0.94116630      -0.66396258      -1.34734464       0.00002710       0.01060598       0.00079444
H       -0.01034397      -0.50559986      -1.85359074      -0.00126540      -0.02906290       0.00482147
H        1.75998347      -0.28183795      -1.96440391      -0.00290128       0.00334618      -0.00630336
H        1.08001182      -1.73617185      -1.19009249      -0.00369370       0.02584409       0.01043322
N        0.60138391       2.16719158       1.18714757      -0.01143864       0.00292464       0.04567871
H        0.59224199       3.17717880       1.08457608       0.00358563      -0.00760908       0.00517404
H        1.40468223       1.93367740       1.76147105       0.01728975       0.00430821      -0.00351057
N       -0.35612871       1.85678710      -1.02005718      -0.01515903      -0.00484016      -0.01789018
H       -0.61181183       2.83307387      -0.91782594      -0.00957888       0.00294727      -0.03889758
H       -1.16184034       1.29679332      -0.72485127      -0.00823342      -0.00737983       0.02136808
