13
Properties=species:S:1:pos:R:3:forces:R:3 Coordinates=T from=T ORCA-job=T run=T Energy:=T 26.5058122=T energy=-78437.12940105905 pbc="F F F"
C        0.97590962      -0.07888596       0.05784699      -0.03987283       0.02306593      -0.00479453
H        0.87701100       1.93699004      -0.71708227       0.00130652      -0.02110853       0.01055124
F       -1.82199957       0.15919563      -0.84760188      -0.02237395       0.03228834       0.01673014
Br       2.88315911      -0.06759238       0.64469403       0.04490531      -0.01971516      -0.00244281
C        0.38435479       1.31821537       0.04134529      -0.03118592       0.01867462       0.00929003
H        0.46711375      -0.66962198       0.81919711      -0.00173478      -0.00443019       0.01864487
H       -0.69606242       1.07925291      -0.29585791       0.01984063      -0.03167720       0.00224477
C        0.84085706      -0.73949972      -1.29687063       0.01081235      -0.00115860      -0.02055242
H       -0.23774567      -0.67943330      -1.50564435      -0.00827855       0.02846598       0.00757470
H        1.40956383      -0.18658962      -2.04940870       0.02370091       0.01107526      -0.03754367
H        1.19276535      -1.77306881      -1.27899680       0.02444699      -0.02794771       0.02504515
C        0.42668737       1.99505817       1.32673402      -0.02058530      -0.01106214      -0.02330269
N        0.43119581       2.54838964       2.36537512      -0.00098133       0.00352941      -0.00144480
