14
Properties=species:S:1:pos:R:3:forces:R:3 Coordinates=T from=T ORCA-job=T run=T Energy:=T 24.4496723=T energy=-144729.58030199198 pbc="F F F"
C        0.26564524      -0.05940655      -0.08431955       0.01865526       0.02624444       0.00943462
H        1.59832545       1.52517928      -0.31870804      -0.00279303      -0.01604467      -0.00973396
Br      -1.64004715      -0.36087937       0.43903961       0.00365576      -0.02891144      -0.01908073
Br       3.85550178       0.01206742       0.45124702      -0.00395397       0.00117716       0.00343164
C        0.52305393       1.43360617      -0.13555261      -0.00472275       0.02403088      -0.00926776
H        0.84447450      -0.48417087       0.73474955       0.00981248       0.00092072       0.01195425
H        0.32718539       1.86061108       0.85876401      -0.00732037      -0.01036384       0.01123825
C        0.56859842      -0.78002879      -1.37890125      -0.00187814       0.00145783       0.01194043
H       -0.00377535      -0.36154700      -2.20669004       0.00120273       0.01611514       0.00679600
H        1.64007326      -0.64408094      -1.55428681      -0.00130442      -0.00663978      -0.01280275
H        0.36765338      -1.84955680      -1.29002853      -0.01498811      -0.01113054       0.00442218
N       -0.22570071       2.08226933      -1.21599607      -0.01178716       0.00090588      -0.02200129
H        0.09666304       3.03789098      -1.30812054       0.02426002       0.00155387      -0.00244208
H       -1.20573114       2.11802605      -0.95886674      -0.00883827       0.00068435       0.01611123
