17
Properties=species:S:1:pos:R:3:forces:R:3 Coordinates=T from=T ORCA-job=T run=T Energy:=T 37.5991385=T energy=-30800.25834398602 pbc="F F F"
C        0.17477993      -0.08889563      -0.15654602       0.03532865       0.02722019       0.00107400
H        1.52763142       1.44514128      -0.51880989       0.01033763      -0.00831187       0.00717494
Cl      -1.59124344      -0.41395928       0.08873886      -0.03548804       0.00308376      -0.01624267
Cl       3.28303925       0.33062642       1.43252405      -0.00784225      -0.01228782      -0.00743387
C        0.47640588       1.40790286      -0.19762414       0.00742563       0.02915515       0.01881132
H        0.67402332      -0.48947510       0.72509496       0.00626372      -0.01023059       0.01526634
C        0.65343502      -0.84074765      -1.38372303       0.00907984      -0.00185323       0.00143624
H        0.15500805      -0.49522734      -2.29363517       0.00562110       0.01525535       0.00894379
H        1.73266728      -0.69225806      -1.47025023       0.01013782      -0.00904861      -0.00778294
H        0.46068762      -1.90978640      -1.27300484      -0.00644918      -0.01114863      -0.00989396
N        0.32599230       1.95576253       1.15042992      -0.01821401       0.00165850       0.03391549
H        0.51797899       2.95239067       1.10276353      -0.00255283       0.00104095      -0.01206909
H        1.09693369       1.55797800       1.68849904       0.01988249      -0.01189807       0.00546776
C       -0.37216949       2.20784945      -1.17510886       0.00901728      -0.00176153      -0.01302764
H       -0.30467641       1.81526406      -2.19287135      -0.02967243      -0.03122414      -0.01450012
H       -1.41760728       2.21444451      -0.85972478       0.01720272       0.00819763       0.00362053
H       -0.00875616       3.24118969      -1.19849206      -0.03007813       0.01215299      -0.01476014
