16
Properties=species:S:1:pos:R:3:forces:R:3 Coordinates=T from=T ORCA-job=T run=T Energy:=T 49.6689050=T energy=-82989.23231078613 pbc="F F F"
C        0.87512343       0.01022589      -0.06889916       0.00987065      -0.02708756      -0.01720570
H        1.63262690       2.01252068      -0.48272466      -0.00503837       0.00762354       0.00118848
F       -1.85536764      -0.13160683      -0.38144926      -0.02222293       0.01191814      -0.03195675
Br       2.59083974      -0.35260422       0.85694665      -0.00606281       0.01405534      -0.00035818
C        0.70708084       1.51863871      -0.16700947       0.01372627      -0.01502064       0.02350049
H        0.07832765      -0.38515134       0.55738629      -0.00287429       0.00488085      -0.01694121
C        0.84474054      -0.67323701      -1.42085600      -0.00831148      -0.00063589      -0.00058019
H       -0.19737276      -0.60395326      -1.73499448      -0.01031450      -0.00326935       0.02544143
H        1.51294132      -0.19920273      -2.14603731       0.00364990       0.00640240       0.04099162
H        1.11680934      -1.72684859      -1.31238750       0.00706058       0.01983019      -0.00993508
N        0.52832244       2.10191957       1.26474049      -0.00168405       0.00155256      -0.01241627
O        0.84296500       3.29272740       1.38357467       0.02277467       0.01314595      -0.00315167
O        0.00741870       1.43024808       2.15050714       0.01851593      -0.00926042      -0.01039616
N       -0.39329223       1.84365703      -0.99269537       0.01362972      -0.01187796       0.03247914
H       -0.60788814       2.83060830      -0.92206065      -0.03403205      -0.02016379      -0.01487334
H       -1.19197496       1.17052827      -0.75422132       0.00131278       0.00790662      -0.00578660
