12
Properties=species:S:1:pos:R:3:forces:R:3 Coordinates=T from=T ORCA-job=T run=T Energy:=T 1.2413616=T energy=-85729.66755375078 pbc="F F F"
C        1.09885591      -0.01781408      -0.03085714       0.01288178      -0.01183219       0.02165734
H        1.35323618       1.96169126      -0.86209840       0.00595842      -0.00645778       0.01038859
Br      -2.51795336      -0.34300720       0.26128441      -0.00002717       0.00535012      -0.00950375
Cl       2.84110893      -0.23677985       0.47834936      -0.00373480       0.02408114      -0.04192072
C        0.77050924       1.45943353      -0.08320012       0.00292022      -0.01767034      -0.00055944
H        0.50884567      -0.49495345       0.74933695      -0.03663967      -0.00184968       0.00032942
H        0.97307617       1.94027593       0.87682013      -0.00217885      -0.00131509      -0.01974525
H       -0.29887743       1.54214092      -0.29368506       0.00789967       0.00197484       0.01549947
C        0.86554891      -0.72671719      -1.34837518       0.00166238       0.00949915       0.01544962
H       -0.20335886      -0.65502815      -1.56525444       0.00865170      -0.01386678       0.00620977
H        1.44999531      -0.26359160      -2.14991662       0.00565069      -0.00559313       0.01114936
H        1.13495322      -1.78330013      -1.27807389      -0.00304435       0.01767972      -0.00895439
