18
Properties=species:S:1:pos:R:3:forces:R:3 Coordinates=T from=T ORCA-job=T run=T Energy:=T 22.2344499=T energy=-20568.273289824505 pbc="F F F"
C        0.82030929       0.03406807      -0.00178202       0.02983671      -0.00159954       0.03908703
H        1.75166019       1.85994144      -0.53037972       0.00340787       0.02057946      -0.01925511
Cl      -2.72989450      -0.67094149      -0.13821007      -0.00528565      -0.00389377       0.00466262
F        1.92333695      -0.25746252       0.84778032      -0.03053265       0.03083926       0.00762448
C        0.76217541       1.54896442      -0.16095901       0.02671915      -0.03157769      -0.00299739
H       -0.08237212      -0.32381809       0.50055864       0.01765756      -0.00294122      -0.00857546
C        1.02934560      -0.73807366      -1.28558830      -0.01249677       0.03117037       0.01883757
H        0.11593016      -0.72274861      -1.88047486      -0.02584284       0.01569661       0.00428359
H        1.86521531      -0.32084688      -1.85765214       0.00143739      -0.00668570      -0.02161062
H        1.25307563      -1.77954606      -1.04112867      -0.00396172       0.01652964      -0.00427157
C        0.51667671       2.21462851       1.19520138      -0.00134621      -0.02418398      -0.02938947
H       -0.46658539       1.92140930       1.57490975      -0.00796919       0.00157280       0.00196527
H        1.27605206       1.92004084       1.92321424      -0.01116142      -0.02094874      -0.00791155
H        0.53677367       3.30567981       1.09673237      -0.00738424      -0.00760142       0.01125537
C       -0.32263306       1.95315360      -1.16421100       0.02133455      -0.00885229       0.03201774
H       -0.04310587       1.69447112      -2.18994145      -0.00677714      -0.00975135       0.02115818
H       -1.26069700       1.44335824      -0.92567114      -0.00029260      -0.01485241      -0.01504324
H       -0.48722303       3.03508196      -1.12259833       0.01265719       0.01649996      -0.03183743
