16
Properties=species:S:1:pos:R:3:forces:R:3 Coordinates=T from=T ORCA-job=T run=T Energy:=T 47.9192841=T energy=-92786.33296191742 pbc="F F F"
C        0.08849146      -0.12425980      -0.08510942      -0.03049414      -0.01286390      -0.00946268
H        1.56471146       1.36813434      -0.07379841       0.04907935       0.01608838      -0.04852795
Cl      -1.70744646      -0.28324879       0.12405955      -0.09713454       0.00687239      -0.02613135
Br       3.83969023       0.58133091       0.08674296       0.03181643      -0.00319851      -0.04016194
C        0.46261168       1.34587831      -0.09652727       0.02667130       0.00736047       0.04732284
H        0.53341272      -0.58571263       0.79533231      -0.04263514       0.06155112       0.02794456
C        0.53101992      -0.83712887      -1.34528721       0.03099091      -0.02493181      -0.00827751
H        0.13525726      -0.34634769      -2.23478334      -0.03402168       0.01781660       0.04923891
H        1.62310834      -0.81558942      -1.37347771       0.04310412       0.08131065       0.01345348
H        0.19601110      -1.87634294      -1.32029908       0.00377909      -0.02109256       0.00127851
N        0.05801775       1.96741681       1.25171617      -0.00960906       0.15201070      -0.00261279
O       -0.48686344       3.07607847       1.22512481       0.04525004      -0.16202704       0.03197628
O        0.34062688       1.34988225       2.27357873      -0.02888977      -0.03105528      -0.03681231
N       -0.05914289       2.07015114      -1.20289000       0.00338737      -0.02628930       0.03374319
H        0.40433380       2.96752543      -1.27146324      -0.03804065      -0.06554222       0.01089533
H       -1.05156926       2.23293250      -1.07484876       0.04674637       0.00399032      -0.04386656
