13
Properties=species:S:1:pos:R:3:forces:R:3 Coordinates=T from=T ORCA-job=T run=T Energy:=T 37.2571110=T energy=-20939.415228778038 pbc="F F F"
C        0.04679556      -0.04075819      -0.09790278      -0.02106518      -0.00401024       0.00952567
H        1.77790714       1.05969521       0.12656485       0.01920687      -0.01326838      -0.01498953
Cl      -1.77825515       0.03970853      -0.18711356      -0.01719044      -0.00726566      -0.02861315
F        2.98605923       0.05886045       0.04137162       0.01850995       0.02419839       0.01396061
C        0.66415686       1.33773622       0.05899395      -0.00445836      -0.01111089       0.01347820
H        0.26089326      -0.62032223       0.79994575       0.01429419       0.00459126       0.00949733
H        0.47913603       1.94408667      -0.83481252       0.00110759      -0.02062873       0.00940366
C        0.61167784      -0.74420410      -1.31281195      -0.00568214      -0.00476896      -0.01401331
H        0.23660485      -1.76707495      -1.39448714      -0.03368355      -0.01828865       0.02494270
H        0.34694156      -0.20098917      -2.22469638       0.00238752       0.01705456      -0.02659964
H        1.69747911      -0.72407375      -1.14326432       0.01339890       0.02720225      -0.00296555
C        0.20453033       2.05415350       1.23705956       0.01953361      -0.00982372      -0.00486334
N       -0.14108661       2.63703182       2.19876291      -0.00635896       0.01611878       0.01123637
