15
Properties=species:S:1:pos:R:3:forces:R:3 Coordinates=T from=T ORCA-job=T run=T Energy:=T 8.5692152=T energy=-29297.86549182457 pbc="F F F"
C        0.23477419      -0.11353461      -0.07366589      -0.01839994      -0.03790367      -0.02589030
H        1.35492736       1.61366001      -0.38908788      -0.00927197      -0.00078667      -0.03634673
Cl      -1.46402142      -0.64046482       0.35884703       0.02462143       0.01902335      -0.01814372
Cl       3.55747950       0.29967917       0.63151136       0.00902924      -0.00834195      -0.00894394
C        0.32316404       1.40024572      -0.09587582      -0.00176701      -0.02178448       0.00100766
H        0.88039583      -0.50036764       0.71463507      -0.02621109       0.01630132       0.00184757
H       -0.36036737       1.79033884      -0.86125854      -0.00731634      -0.00586390      -0.00473765
C        0.61209837      -0.73884552      -1.40057028       0.01296632      -0.02704092      -0.01018041
H       -0.02730413      -0.36032751      -2.20485094       0.03334529       0.02187352       0.00570421
H        1.65877021      -0.48961581      -1.59171582      -0.01041233       0.00778583       0.00246331
H        0.51647092      -1.82630983      -1.36667169       0.00080360      -0.01177090       0.02112558
C        0.06565435       2.05686666       1.25281576      -0.00964548       0.02515449       0.03591998
H       -0.94599154       1.85723525       1.61263606      -0.02450166      -0.00665200       0.02742449
H        0.78770438       1.68325683       1.98155111       0.02358217      -0.01259393       0.00020466
H        0.19534530       3.13990327       1.17986047       0.00317777       0.04259991       0.00854528
