14
Properties=species:S:1:pos:R:3:forces:R:3 Coordinates=T from=T ORCA-job=T run=T Energy:=T 125.5152269=T energy=-148236.15785666826 pbc="F F F"
C        0.93075848      -0.05248012      -0.05231253      -0.02344919       0.02290217       0.00161913
H        1.63943607       1.92906730      -0.46354526      -0.00721834       0.01174359       0.03574236
Br      -2.29993723      -0.39164035       0.41332450       0.00662998      -0.00114584      -0.00728921
Br       2.67839138      -0.31469728       0.82555673       0.00734529       0.02298704      -0.00612484
C        0.69551983       1.47380274      -0.13144775      -0.00834656       0.01666709      -0.00435719
H        0.18452287      -0.49354457       0.60726796      -0.02401513      -0.02485519      -0.02562117
C        0.90943319      -0.70720358      -1.41640509       0.00195844       0.00097804      -0.00121034
H       -0.12553565      -0.69194273      -1.76507748      -0.01704154      -0.00782030       0.00040828
H        1.55269828      -0.18698527      -2.13216211       0.03898814       0.01280729       0.00856253
H        1.23507592      -1.74505937      -1.33984641      -0.01381836      -0.03262515       0.00775026
C        0.37524204       2.05967787       1.17790389       0.03246568      -0.00436172      -0.00267126
N        0.20472313       2.57361456       2.22052921       0.01548414       0.00255475      -0.01829542
C       -0.29450348       1.86991329      -1.14723432       0.00345425      -0.02640995      -0.00392753
N       -0.90664476       2.29298748      -2.05730127      -0.01243677       0.00657818       0.01541443
