15
Properties=species:S:1:pos:R:3:forces:R:3 Coordinates=T from=T ORCA-job=T run=T Energy:=T 116.7212529=T energy=-26493.409730192936 pbc="F F F"
C        0.14838632      -0.14554404       0.01732995      -0.00642983       0.00738281      -0.02978533
H        1.63612291       1.27223969       0.11840141      -0.00590504      -0.00096194      -0.00953364
Cl      -1.62238789      -0.49296580       0.20884656      -0.02773435       0.00685100       0.01096532
F        2.91156419       0.54030153      -0.11314486       0.02366264      -0.01703814      -0.01364442
C        0.47078136       1.33240755       0.06486354       0.00126482       0.00036355       0.00306615
H        0.22195833       1.75803208      -0.91252864      -0.02916607      -0.00334889       0.01658139
C        0.65789369      -0.76369247      -1.26269689       0.00532885      -0.01422315      -0.00900289
H        0.10327782      -0.33839040      -2.10284580       0.01483614       0.01247975       0.00560660
H        1.71838897      -0.48769829      -1.29480386       0.01091263       0.00210131       0.03202058
H        0.52157107      -1.84295246      -1.24785704      -0.00225318      -0.01839600      -0.00315266
N        0.79060489      -0.85003089       1.21803404       0.02224815       0.02315504      -0.02453975
O        0.92766766      -0.19323898       2.24172947      -0.00275727      -0.00588768       0.00453855
O        1.06143310      -2.04030075       1.09305046      -0.00980602       0.01823773       0.00360232
C       -0.16852277       2.11740693       1.10195042       0.02645910      -0.00842918       0.02585182
N       -0.66271967       2.82543630       1.90140124      -0.02066058      -0.00228619      -0.01257402
