16
Properties=species:S:1:pos:R:3:forces:R:3 Coordinates=T from=T ORCA-job=T run=T Energy:=T 57.3010743=T energy=-25490.95648702978 pbc="F F F"
C        1.16898422       0.06274552      -0.06059200       0.01760772       0.00925428      -0.00027917
H        1.77229520       2.01839414      -0.58119252       0.00427967      -0.01782851      -0.00770674
F       -1.62222526      -0.18458799      -0.15977917       0.01193534      -0.01797651      -0.00494383
Cl       2.93639356      -0.09321411       0.40224300      -0.01620720      -0.02119649       0.00877974
C        0.87431500       1.56115649      -0.14822811      -0.00480551       0.01052188      -0.01100624
H        0.79253529       1.91512252       0.88727680       0.00890471       0.01620905      -0.00268075
C        0.89364410      -0.71853555      -1.31598319      -0.00894767      -0.00055458       0.00565452
H       -0.19883515      -0.73108878      -1.38634925      -0.01514232       0.00398950      -0.01163340
H        1.34820969      -0.20384651      -2.16489861      -0.01525843       0.00488794       0.00728442
H        1.28230627      -1.73256985      -1.23051703       0.02568912       0.00896581       0.01018421
N        0.47584809      -0.61100133       1.13732550      -0.00752845      -0.00829011      -0.03618947
O        0.18881487       0.08799158       2.10000980      -0.00775225       0.00253091       0.00624589
O        0.39345074      -1.83147898       1.09932361      -0.00322209       0.03263541       0.00259549
N       -0.27522423       1.84356093      -1.00212877       0.00049614       0.00642877      -0.00481381
H       -0.58747900       2.78475410      -0.78651509       0.00124980      -0.00879658       0.02235020
H       -1.01929341       1.16357782      -0.70732497       0.00870143      -0.02078078       0.01615894
