16
Properties=species:S:1:pos:R:3:forces:R:3 Coordinates=T from=T ORCA-job=T run=T Energy:=T 189.2540985=T energy=-92240.89956290956 pbc="F F F"
C        0.14585888      -0.08004445       0.00025715       0.00819240      -0.01441342      -0.00087762
H        1.59353119       1.42619628      -0.30043013      -0.03676800       0.01569464       0.01056987
Br      -1.83006296      -0.28374139       0.19887971       0.00856625       0.00010798       0.00637351
Cl       3.69987838       0.90444045      -0.23877479       0.00634668      -0.03253100       0.00033073
C        0.50095873       1.42718713      -0.09176800      -0.02408229      -0.01043530       0.00506590
C        0.61020758      -0.85622247      -1.22171199      -0.00334748       0.01113475       0.00061650
H        0.09923929      -0.48548117      -2.11139809       0.00255976       0.04172843      -0.03156147
H        1.68887424      -0.69372207      -1.31220390       0.02582155      -0.01089994      -0.00295093
H        0.39586403      -1.91882682      -1.10460848       0.00440159      -0.04796710      -0.00545450
C        0.70034776      -0.63598947       1.23463194      -0.01402840       0.02565625       0.01788550
N        1.08765347      -1.09801404       2.24485274       0.01381550      -0.01152543       0.00727713
N        0.28442695       2.21329234       1.10385161       0.00503967      -0.00718644       0.01691629
H        1.03476458       2.00950691       1.75359900       0.03581592       0.03163542       0.00203123
H       -0.60421664       1.98220732       1.53383072      -0.01587224      -0.00240684      -0.00123397
C       -0.19778820       2.02531544      -1.23506502      -0.01805532       0.00776434       0.00729099
N       -0.75967743       2.50329598      -2.15029242       0.00159439       0.00364364      -0.03227916
