16
Properties=species:S:1:pos:R:3:forces:R:3 Coordinates=T from=T ORCA-job=T run=T Energy:=T 105.0290950=T energy=-12454.62007034017 pbc="F F F"
C        1.10260933       0.07829133       0.18348141       0.02945729      -0.03392668       0.02251396
H        1.12988080       1.86159695      -0.99148018      -0.05863249       0.02550697      -0.02000731
F       -1.10772054       0.47603861      -2.56701839       0.04236229       0.00024408       0.06208852
H        2.15671265       0.10806661       0.49297434       0.01813299      -0.00368918       0.00758156
C        0.60511808       1.54061587      -0.08221656       0.02730397      -0.06088063       0.00934588
C        0.92854617      -0.79278007      -1.06860735       0.00819838       0.01157127      -0.00639022
H       -0.08172367      -0.67552159      -1.48739436       0.08887754      -0.02212668      -0.03214425
H        1.59434684      -0.42065234      -1.85345128       0.06471537      -0.02145766       0.05243604
H        1.18795225      -1.83282161      -0.84620008      -0.05593683       0.00297236      -0.00252020
C        0.33357394      -0.47117364       1.30622466      -0.00566074       0.08592367      -0.10735023
N       -0.34430610      -0.88206819       2.17364676       0.01838078      -0.07913912       0.12270675
C        1.08521806       2.40782012       1.02715784      -0.01889454      -0.24519989      -0.28823791
N        1.51582648       3.06143319       1.90273658       0.00118790       0.10755488       0.14025939
N       -0.80141902       1.69128447      -0.31798556      -0.03360271       0.21601779       0.09218091
H       -1.31622429       1.24754664       0.43416423      -0.05889925      -0.02618391       0.00658641
H       -1.02565100       1.22351367      -1.25272207      -0.06698996       0.04281274      -0.05904930
