15
Properties=species:S:1:pos:R:3:forces:R:3 Coordinates=T from=T ORCA-job=T run=T Energy:=T 53.6325947=T energy=-83991.466178078 pbc="F F F"
C        1.00410333       0.04946495       0.10902419      -0.14615424      -0.06510750      -0.05242598
H        0.73432916       1.95496006      -0.82619517      -0.06040155       0.03226673      -0.00649391
F       -2.11944682       0.56192759      -0.75527305      -0.08318882       0.03750715      -0.05736326
Br       3.24728054       0.02801991       0.53225705       0.03949608      -0.04544641      -0.12349678
C        0.49222590       1.36546579       0.05220977       0.15747960       0.00446764       0.16828114
H       -1.32036219       0.91171355      -0.39353901       0.10437517      -0.04067772       0.06632966
C        0.90399551      -0.70826157      -1.20888709       0.00010233      -0.08798799      -0.03194071
H       -0.15748909      -0.82165119      -1.44363935       0.00265144      -0.11685803       0.00728481
H        1.38151105      -0.17695971      -2.03345374       0.10798330       0.16636870       0.12986774
H        1.37401426      -1.68385692      -1.10564876       0.00386898      -0.08072783      -0.06689430
C        0.60248785      -0.82378725       1.20532045      -0.07129485       0.00973433      -0.08892906
N        0.22670412      -1.68170909       1.92110258       0.01325793       0.09648526       0.03881325
N        0.53470379       2.16227864       1.23303188       0.04587796       0.04352287       0.02016040
O        0.50228396       3.39694994       1.09885133      -0.07914825       0.01512614      -0.05308460
O        0.59554885       1.59826532       2.33392896      -0.03490504       0.03132666       0.04989161
