16
Properties=species:S:1:pos:R:3:forces:R:3 Coordinates=T from=T ORCA-job=T run=T Energy:=T 191.6698147=T energy=-92241.29746168452 pbc="F F F"
C       -0.02280764      -0.23083292       0.06373284       0.05128208      -0.02108805       0.03708950
H        1.49794957       1.25227837       0.15594519       0.23810912      -0.10545398       0.03746599
Cl      -1.82508097      -0.35820401      -0.01718980      -0.02091171       0.06309098       0.05922493
Br       3.52431835       1.65201776      -1.21688951      -0.08570277       0.00786822      -0.04502196
C        0.40110391       1.25907534       0.09855143       0.09044203       0.01678857       0.10095047
C        0.55611245      -0.92561993      -1.16745907      -0.06089347       0.07802912       0.07181918
H        0.18155742      -0.38528374      -2.03823878       0.07136770       0.00304947       0.00173612
H        1.65031079      -0.86358666      -1.15600103      -0.11386952       0.01757103       0.03321024
H        0.21007642      -1.96254627      -1.20939774       0.11512870       0.04415289       0.05950822
C        0.40084958      -0.87710213       1.31792392      -0.01414716      -0.20140203      -0.06269363
N        0.74404795      -1.42932951       2.30136320      -0.06554515       0.16150483      -0.20488023
C       -0.10743359       1.92163234       1.30523817      -0.16654186       0.10510960      -0.12242994
N       -0.55556270       2.53427239       2.20359070       0.02698262      -0.05173726       0.07786560
N        0.04381368       1.95662146      -1.12231352      -0.00286796      -0.10422830      -0.09194366
H        0.91288533       2.28422930      -1.54345959       0.00379191      -0.04148551       0.07203893
H       -0.56518995       2.73858820      -0.93360642      -0.06662452       0.02823043      -0.02393980
