15
Properties=species:S:1:pos:R:3:forces:R:3 Coordinates=T from=T ORCA-job=T run=T Energy:=T 25.3089846=T energy=-79940.70848407823 pbc="F F F"
C        0.02058050      -0.17550286       0.04137076      -0.08434572       0.04731711       0.00070768
H        1.59076463       1.29080470      -0.00567318      -0.09323721      -0.11944948       0.06398828
F       -1.38628597      -0.22177257      -0.07157499      -0.00293014       0.26544037       0.01702654
Br       3.93546262       1.41937238      -1.28394327      -0.13272618       0.02198544       0.02606657
C        0.49382826       1.28546239       0.06257778      -0.03579777       0.01246189       0.06748361
H        0.20450963       1.72222300       1.02877644      -0.04717951       0.03715398      -0.01773721
C        0.59332428      -0.94292337      -1.11927551       0.05038772       0.01474602      -0.09810379
H        0.36552933      -0.36557913      -2.01099613       0.02433800       0.04838163      -0.16943964
H        1.67653771      -1.01181123      -1.01813014       0.06604147      -0.04586950      -0.06735309
H        0.12672585      -1.92756735      -1.18939253       0.07404047      -0.05372977       0.06550510
C        0.29218974      -0.83706881       1.33636699      -0.07322704       0.03753034       0.05923050
N        0.38031941      -1.36353324       2.38340214       0.13883009       0.00476150      -0.02543426
N       -0.03513388       2.00943870      -1.09365740      -0.09034535      -0.05632800       0.17694713
H        0.67993633       2.64653406      -1.42371888       0.01548653      -0.10163182      -0.04266860
H       -0.86252762       2.53828335      -0.83599212       0.19066466      -0.11276970      -0.05621882
