17
Properties=species:S:1:pos:R:3:forces:R:3 Coordinates=T from=T ORCA-job=T run=T Energy:=T 178.3337841=T energy=-24510.968022512472 pbc="F F F"
C        1.15886305      -0.02561475       0.00926796       0.01304480       0.02966735      -0.01012022
H        1.54038449       2.05190959       0.01795028      -0.03295000      -0.00299661       0.00349618
Cl      -2.33472060       0.10097177      -0.02992097       0.02991969      -0.03530245      -0.00511752
F        2.57255343       0.14324987       0.03280813       0.01049179      -0.07256644      -0.00058558
C        0.61726796       1.45444647       0.00488636       0.00378724      -0.05284138      -0.00051231
C        0.82854151      -0.77891880      -1.26003288      -0.04659235       0.01843628       0.01612334
H       -0.25651369      -0.87086584      -1.35336657       0.04461328       0.05471854       0.00956808
H        1.23734219      -0.25389841      -2.12733315      -0.03806160      -0.01474083      -0.00087906
H        1.27986499      -1.77242536      -1.20462905       0.03988688      -0.01501952      -0.00429735
C        0.79283795      -0.79220221       1.26067074      -0.03074636       0.00821690      -0.03615763
H        1.31159844      -1.75300938       1.23629094       0.01932368      -0.04675382      -0.00451589
H        1.11311978      -0.24711849       2.15137990      -0.02361982       0.00109027       0.01215063
H       -0.28797852      -0.94930953       1.28710404       0.03051188       0.08006457       0.00724100
C       -0.09591854       1.84776336       1.22535632       0.00948007       0.06991546       0.03452134
N       -0.42869712       2.26372004       2.27362871      -0.03118672      -0.01991791      -0.04397584
C       -0.06558580       1.85738759      -1.23080617       0.03936702      -0.00323655      -0.03450703
N       -0.36977950       2.26516409      -2.29093458      -0.03726947       0.00126615       0.05756787
