18
Properties=species:S:1:pos:R:3:forces:R:3 Coordinates=T from=T ORCA-job=T run=T Energy:=T 257.7296046=T energy=-23509.42142098255 pbc="F F F"
C       -0.00022952      -0.11283513      -0.09889891       0.02871224      -0.01715245       0.01843236
H        1.62435771       1.24972591      -0.38376164      -0.14454976       0.02934152       0.09935636
F       -1.40706028      -0.04037873      -0.20631823       0.05501980       0.02652898      -0.00173609
Cl       3.62121738       0.75208582       1.16362253      -0.01285265       0.00386779       0.00757215
C        0.56908405       1.32525104      -0.06777155      -0.06911725      -0.01889909      -0.04039888
C        0.51626595      -0.83303986      -1.33308610      -0.00564487      -0.03214189      -0.00533625
H       -0.00006082      -1.79282824      -1.43597789       0.03559531       0.02845329       0.01496673
H        0.33693594      -0.24775101      -2.24213295       0.01374997      -0.01637503       0.07715437
H        1.59075345      -1.00890559      -1.21577871      -0.08165082       0.01517400      -0.07857903
C        0.31909339      -0.86937234       1.17099125       0.05832560       0.01137294       0.01057871
H        1.39613801      -0.82857343       1.35342090      -0.00988532      -0.02980770       0.03839572
H       -0.20110416      -0.40312114       2.00889220       0.01790752       0.01547502      -0.03356554
H       -0.00705187      -1.91125201       1.07080016       0.01069247       0.07692196       0.00484725
N        0.46997084       1.95233425       1.26330580       0.05402600      -0.04960035      -0.15524088
H        0.48514422       2.95910476       1.13071362      -0.02545596      -0.01897515       0.03281111
H        1.36272571       1.72587379       1.70779611      -0.01807243      -0.05689688      -0.00967144
C       -0.16188820       2.12770786      -1.06099508       0.05396641       0.08093853      -0.01422475
N       -0.72651183       2.79722405      -1.84564152       0.03923373      -0.04822552       0.03463810
