20
Properties=species:S:1:pos:R:3:forces:R:3 Coordinates=T from=T ORCA-job=T run=T Energy:=T 41.7409522=T energy=-79567.16765603768 pbc="F F F"
C        0.03074509      -0.12346124      -0.02353389       0.00273354       0.01941036      -0.00101919
H        1.55530293       1.22251014      -0.07159169       0.00810926      -0.01324532      -0.00187855
Br      -2.00168199      -0.23396536      -0.09185170       0.00015085      -0.00942181       0.02140183
F        3.03292885       0.14985451       0.16127086       0.00015539       0.01204738       0.00637854
C        0.45315803       1.34640551      -0.01429468      -0.00756057       0.02752940      -0.02172774
C        0.58719209      -0.81332287      -1.25465029       0.00240221       0.00041438      -0.01040794
H        0.29828569      -1.86833471      -1.27408872      -0.01450523      -0.00917665      -0.01390573
H        0.26485043      -0.31577396      -2.16808519      -0.02399507       0.01164615      -0.00788637
H        1.67375364      -0.70911171      -1.11935803       0.02677046      -0.00150761       0.00655155
C        0.50858892      -0.84255817       1.22274554      -0.00150694      -0.00100939       0.01641566
H        1.59727527      -0.66134226       1.20342280       0.02650139      -0.00807815       0.00817100
H        0.05011179      -0.45686827       2.13485378      -0.01746386       0.01139612       0.01949563
H        0.29417536      -1.91270143       1.15199942      -0.00325715      -0.01626332      -0.00470154
C        0.11165423       2.10292569       1.26923209       0.00513706      -0.00118879       0.01068598
H       -0.96646163       2.08894027       1.47188639       0.00681346      -0.00183256      -0.00159827
H        0.64451319       1.69902823       2.13235311       0.00437792      -0.01407557       0.01213797
H        0.42550468       3.14651997       1.15088575      -0.01962972       0.00009081       0.02219051
N       -0.03433248       2.03019642      -1.21885540      -0.00731159       0.00078862      -0.04564443
H        0.47975170       2.89931182      -1.31478040       0.03229654      -0.00926068      -0.00140583
H       -1.01095592       2.27360741      -1.07738977      -0.02021795       0.00173663      -0.01325309
