18
Properties=species:S:1:pos:R:3:forces:R:3 Coordinates=T from=T ORCA-job=T run=T Energy:=T 16.6593485=T energy=-20567.12690716429 pbc="F F F"
C        0.08170300      -0.09746385      -0.02038001      -0.00579918       0.01450056       0.01629244
H        1.65530087       1.21934628      -0.01517841       0.01593648      -0.00052533      -0.02115179
Cl      -1.77104255      -0.13261967      -0.11597692       0.00843262       0.00038897       0.00188175
F        3.11291394      -0.04438648       0.15570502      -0.00818548       0.01131468      -0.02149279
C        0.55941084       1.34959609       0.02170837       0.00401290       0.02032428       0.01614236
H        0.21159030       1.85768749      -0.88656262      -0.00254587      -0.00779361      -0.01109666
C        0.63891213      -0.76425210      -1.26437739       0.00014282       0.01044568       0.00047470
H        0.30071435      -1.80237136      -1.33818727      -0.00578487      -0.00596064      -0.01434099
H        0.33484136      -0.22457691      -2.16612385      -0.00089593      -0.00333131      -0.03148171
H        1.72821132      -0.70982873      -1.11630451       0.02425081      -0.00740260      -0.00030027
C        0.52870604      -0.86728961       1.20711248       0.00068380      -0.00669344       0.01576783
H        1.62527464      -0.75353992       1.19025087       0.02492514       0.00793002       0.00416219
H        0.09229089      -0.46926488       2.12554713      -0.01595749       0.01549274       0.02620046
H        0.25198783      -1.92187202       1.11883994      -0.03148251      -0.02481229       0.00277424
C        0.16262919       2.15309113       1.25626914      -0.00693146       0.00106492       0.00573244
H       -0.91808836       2.13638838       1.43242930       0.00827222      -0.02409861      -0.00158371
H        0.66954854       1.76862301       2.14492920      -0.02209904       0.02562515       0.00204288
H        0.46534567       3.19941317       1.13473953       0.01302504      -0.02646916       0.00997662
