18
Properties=species:S:1:pos:R:3:forces:R:3 Coordinates=T from=T ORCA-job=T run=T Energy:=T 76.9697180=T energy=-23508.25633839581 pbc="F F F"
C        0.02595944      -0.11718389      -0.00601724      -0.01941644       0.01152521      -0.00315727
H        1.65742488       1.14289499       0.01499372       0.01481118      -0.01333308       0.00268358
Cl      -1.81535006      -0.09891518      -0.03436419      -0.01218909      -0.02700429      -0.00321027
F        3.00537875       0.22108362       0.02487924       0.00697544       0.02428470      -0.00099561
C        0.53657479       1.32631639       0.00459267      -0.01046883       0.00884076      -0.00523675
C        0.53828776      -0.81315727      -1.25385469      -0.00302778      -0.00340701      -0.00923579
H        0.22521333      -1.86096639      -1.26257627      -0.00371762      -0.02108242       0.02656371
H        0.18083540      -0.31603118      -2.15501925      -0.01050750       0.02577274       0.01353123
H        1.62895133      -0.72403112      -1.17638924       0.01293550      -0.00448928      -0.00170071
C        0.50268336      -0.83531528       1.24428258      -0.00638705       0.00363523      -0.00513000
H        1.59544020      -0.73958226       1.20401338       0.00454088      -0.00246455       0.00515008
H        0.10677537      -0.37804713       2.15481861      -0.00460713       0.02395303      -0.02098159
H        0.19952723      -1.88576866       1.22163025       0.00164853      -0.00798818      -0.02150900
C        0.13745978       2.03613929       1.22918860       0.01291315      -0.00924347       0.04381053
N       -0.18384884       2.67319492       2.16609525       0.00385866       0.00910194       0.00690668
N        0.14736310       2.06201576      -1.19850830       0.00045561       0.01709997      -0.03102473
H        0.75373603       2.86812384      -1.29485975       0.00675748      -0.02599809       0.00891223
H       -0.80579186       2.39714954      -1.10230537       0.00542505      -0.00920320      -0.00537632
