16
Properties=species:S:1:pos:R:3:forces:R:3 Coordinates=T from=T ORCA-job=T run=T Energy:=T 136.8617828=T energy=-146798.5222737488 pbc="F F F"
C        1.12766929      -0.06149749       0.08471100       0.02244118       0.04402467       0.05572042
H        0.93606640       1.91705065      -0.75782440      -0.01856816       0.01433853      -0.02839601
Br      -2.79561349       0.02827067      -0.69483323       0.01901906       0.01695565       0.05462119
Br       3.11909022       0.08733270       0.24525566      -0.08101951      -0.03882228      -0.08616159
C        0.55388497       1.36016627       0.10260008      -0.02214447       0.00283487      -0.02198493
H       -0.53784772       1.26100371      -0.01637371      -0.02389559      -0.04597647      -0.04438090
C        0.78917271      -0.72968468      -1.23591211       0.05382969      -0.00043775      -0.02846932
H       -0.30044410      -0.84711240      -1.28475403       0.04133149       0.06275202       0.00532588
H        1.11628249      -0.12580808      -2.08374911       0.04675659       0.04708942      -0.05313207
H        1.27199883      -1.70614851      -1.29779628       0.00699315      -0.07208441      -0.00555976
C        0.62676677      -0.89366356       1.24956018      -0.01092062      -0.04015382       0.11114607
H        0.95161235      -0.48501422       2.20882349      -0.05027809       0.04977400       0.01253347
H       -0.46851009      -0.90489814       1.19920404       0.01930211       0.00394300      -0.00851532
H        0.99703944      -1.92016724       1.16805077      -0.00605023       0.04607105       0.00556403
C        0.84636710       2.13086001       1.31010947      -0.00412270      -0.05258673       0.01617464
N        1.06937469       2.77902030       2.26474814       0.00732609      -0.03772175       0.01551418
