18
Properties=species:S:1:pos:R:3:forces:R:3 Coordinates=T from=T ORCA-job=T run=T Energy:=T 295.3265011=T energy=-11013.586391152006 pbc="F F F"
C       -0.02540240      -0.15968705       0.02349618      -0.02436406       0.06384593      -0.11847500
H        1.63798330       1.24101641       0.14736445       0.14858514      -0.06903141      -0.05952553
F       -1.44900688      -0.15690077      -0.03103892      -0.03234221       0.18080566       0.01832358
H        3.09461096       1.68163685      -0.38027469      -0.05576207       0.00108077      -0.05362324
C        0.49527811       1.27274317       0.06433216      -0.12250214      -0.06301264       0.07398895
C        0.46515542      -0.85365764      -1.22802833       0.02338835       0.05286329      -0.01874993
H        0.26507676      -1.92128707      -1.13923296      -0.04857269      -0.19857433      -0.10367474
H       -0.01522122      -0.45321878      -2.11806635      -0.06055208       0.09679810       0.04948907
H        1.53799200      -0.68256167      -1.31472188       0.16227303      -0.02179426      -0.05081987
C        0.35670722      -0.97507061       1.25536136      -0.00144994       0.09214948      -0.10634659
H        1.30148687      -1.49099896       1.06343078       0.00347685       0.04088629       0.16499524
H        0.45481217      -0.36924450       2.15839555      -0.07000792       0.01469036      -0.00957726
H       -0.44189356      -1.70739431       1.40118812       0.13962588      -0.11630819       0.07479407
C        0.03058705       1.96160926       1.27001852      -0.05907284      -0.09243281      -0.04242417
N       -0.29077999       2.47292295       2.28117273      -0.07489387       0.11284769      -0.01529617
N        0.31525287       1.99679417      -1.18698135       0.01285633      -0.11940439       0.10531454
H        1.21232210       2.47137634      -1.34183714      -0.12955260       0.01764644      -0.03073138
H       -0.46286077       2.64556219      -1.16463823       0.18886683       0.00694401       0.12233842
