17
Properties=species:S:1:pos:R:3:forces:R:3 Coordinates=T from=T ORCA-job=T run=T Energy:=T 35.4832585=T energy=-21003.175894631426 pbc="F F F"
C        0.07950079      -0.05651597      -0.01574918      -0.02565308       0.01383685      -0.00209025
H        1.70079170       1.20344783      -0.04636459      -0.00517464      -0.00355583      -0.03610478
Cl      -1.78043344       0.01652198       0.01567127       0.01287516      -0.02477718       0.00448827
F        3.10860153      -0.10452053       0.03165673       0.00375345       0.02372451       0.00425097
C        0.60856243       1.36824471      -0.03946577      -0.00768311       0.01169730      -0.00205476
H        0.31549431       1.86392086       0.90102844      -0.01923516      -0.01924527       0.02660760
C        0.53009950      -0.81481645      -1.24770729      -0.01300859      -0.00555867       0.01380096
H        0.15197431      -1.84165383      -1.23065592       0.00376153      -0.02086093       0.00897567
H        0.20196934      -0.31591798      -2.16034919       0.01024915       0.01905646       0.02255530
H        1.62739412      -0.79524318      -1.16040760      -0.01034033      -0.00810466      -0.00884836
C        0.55929016      -0.74636371       1.24600055      -0.01492986       0.00015786      -0.01553863
H        1.65839412      -0.72392877       1.14173223      -0.01719621       0.00472424       0.03090552
H        0.22929871      -0.20865845       2.14135515       0.02417433       0.01189409      -0.01490018
H        0.18130579      -1.77198533       1.29774167       0.01558440      -0.01737826      -0.01962324
N        0.17369723       2.10263634      -1.23265392      -0.00246544      -0.00175872      -0.02566733
H        0.66164174       2.99012715      -1.26006268       0.02829286      -0.01736424      -0.00195179
H       -0.81757232       2.30114534      -1.14591988       0.01699555       0.03351244       0.01519502
