17
Properties=species:S:1:pos:R:3:forces:R:3 Coordinates=T from=T ORCA-job=T run=T Energy:=T 31.2084239=T energy=-34852.17159343772 pbc="F F F"
C        0.03666618      -0.04177490       0.01633015       0.00083471      -0.02990327       0.00210905
H        1.76057631       1.19362124       0.22870398      -0.00105849       0.00406245      -0.00356162
Cl      -1.77412351       0.17176632      -0.10207097       0.00800646      -0.01229452      -0.00866918
Cl       3.84882401      -0.00125168       0.01436140       0.01108500      -0.00386304      -0.00509994
C        0.67870410       1.33934582       0.09559094      -0.00592632      -0.00826397      -0.02138533
H        0.46208639       1.90996280      -0.80534427       0.00034966       0.02527623      -0.01297431
C        0.52045946      -0.69736112      -1.27030982      -0.00703156       0.00596514       0.00352193
H        0.07135761      -1.68959871      -1.37189102       0.00994526       0.03464349      -0.00167957
H        0.24388784      -0.09759181      -2.14143116       0.00967080      -0.00414844      -0.00216506
H        1.61067187      -0.78577747      -1.21542033      -0.01930346       0.00919986      -0.00262371
C        0.34140625      -0.92314292       1.21414222      -0.00089081      -0.01504338       0.02454250
H        1.42879103      -0.97650603       1.32182887       0.00602375      -0.00844538      -0.01511770
H       -0.09192472      -0.52454877       2.12968420       0.00921020       0.00608091       0.01590169
H       -0.05821328      -1.92435876       1.03459402      -0.01381576      -0.01192971       0.01337949
N        0.17513905       2.16775236       1.22275058       0.01087703      -0.01761490       0.02220166
O       -0.48579622       3.17172595       0.94633730       0.00480759       0.02247855      -0.02308955
O        0.45417764       1.80982769       2.36770390      -0.02278406       0.00380000       0.01470963
