16
Properties=species:S:1:pos:R:3:forces:R:3 Coordinates=T from=T ORCA-job=T run=T Energy:=T 46.9704451=T energy=-8947.37366091988 pbc="F F F"
C        0.69935062       0.00659630       0.27455401      -0.00736086      -0.02884719      -0.01089900
H        1.51627437       1.73973962      -0.62277251       0.01049926      -0.00542592      -0.02380364
F       -1.13900262      -0.14976079      -2.38868787      -0.00354166      -0.01035332       0.01816064
H        1.47978752      -0.17190038       1.03360609      -0.00868277      -0.00514799      -0.00331481
C        0.62771106       1.51175922      -0.01841297       0.00131548      -0.01106705      -0.01591162
H       -0.27076651      -0.27552160       0.72951450      -0.02956571      -0.00056841      -0.00290088
N        1.02592885      -0.74493612      -0.93581238       0.02688376       0.00068717      -0.00985385
H        0.23537813      -0.59285624      -1.60471301       0.01400856       0.01498489       0.03778992
H        1.00748864      -1.73368358      -0.70148570      -0.01023654       0.01051533       0.00202507
C        0.70184479       2.31612581       1.27704889      -0.00117251       0.00393655      -0.00238263
H       -0.13563574       2.04813407       1.93458940       0.01396111      -0.00829638       0.00794135
H        1.63415139       2.12659906       1.82029838      -0.01044846       0.01170186       0.01073809
H        0.62601702       3.38427312       1.05639108      -0.00655624       0.00375804      -0.00941644
N       -0.54548816       1.93495404      -0.78379987      -0.01058298       0.01896679       0.00157252
H       -1.34774152       1.84841985      -0.16210365       0.01026317      -0.03051751       0.02034317
H       -0.74002784       1.22857761      -1.52873438       0.01121639       0.03567312      -0.02008788
