15
Properties=species:S:1:pos:R:3:forces:R:3 Coordinates=T from=T ORCA-job=T run=T Energy:=T 68.1136520=T energy=-79941.00975550593 pbc="F F F"
C        0.62335686      -0.02911184      -0.14958707      -0.01649639      -0.00956935       0.01677328
H        1.85837627       1.70737353      -0.29228228      -0.00438399       0.00195196       0.00681789
Br      -2.65472821      -1.00163276       1.00853461       0.01586396       0.01209606       0.01110813
F        1.48754771      -0.47295367       0.88989219       0.01037770      -0.02298321      -0.02642350
C        0.78888455       1.49221814      -0.15127988       0.00796816       0.00253050       0.00332612
H       -0.39323897      -0.31221558       0.13962734       0.00630992      -0.01195546       0.00289120
N        0.95984613      -0.62067126      -1.39349330       0.00561907       0.00163109       0.00985563
H        0.63205618      -1.57791090      -1.41789103       0.00346998       0.02176584       0.00815849
H        1.96146994      -0.60230344      -1.54602627      -0.00868804       0.02147101       0.01584065
C        0.30515645       2.08352074       1.18135049       0.00376132      -0.00759026      -0.00595069
H       -0.71418221       1.74136799       1.37923539       0.01230657       0.02325695      -0.01483146
H        0.94984893       1.72542915       1.98508152      -0.01954808      -0.01063397      -0.00230563
H        0.33037434       3.17659050       1.16215558      -0.00048955      -0.03073397      -0.01229945
C        0.07747594       2.09667795      -1.28151964      -0.04572922       0.00585772      -0.00759199
N       -0.47304408       2.65519141      -2.15641763       0.02965854       0.00290507      -0.00536868
