14
Properties=species:S:1:pos:R:3:forces:R:3 Coordinates=T from=T ORCA-job=T run=T Energy:=T 105.6951162=T energy=-22878.16577362367 pbc="F F F"
C       -0.05489947      -0.18141562      -0.00259196       0.01234495       0.02183278       0.00576994
H        1.60482755       0.99272425       0.06524027      -0.03281708      -0.01135321      -0.00134106
Cl      -1.88957018      -0.08981098      -0.04536064       0.00476355      -0.01671579       0.00019619
F        2.77258070      -0.21813401      -0.07953415       0.00814028      -0.01758533      -0.01356029
C        0.50996871       1.24503043       0.03958872      -0.00097977       0.00827925      -0.00572875
H        0.19596268      -0.67462074       0.93633163      -0.01583957      -0.01166890       0.00412198
N        0.44650957      -0.95262564      -1.09220724       0.01531603       0.03329830       0.02313963
H        1.47076453      -0.92843705      -0.86652351       0.00669596       0.00710810       0.01307045
H        0.33445900      -0.37028500      -1.91892906      -0.00333851       0.00141978      -0.00550217
C        0.11297277       1.97264747       1.25366439      -0.01090870      -0.00830862      -0.00775753
N       -0.20892516       2.59773918       2.19838486       0.02116068      -0.00975267      -0.01224850
N        0.18552665       1.96317400      -1.19115644      -0.01075154      -0.00964888       0.00789457
H        0.84245584       2.72198411      -1.31937941       0.00016175      -0.00041067       0.00647425
H       -0.74894318       2.35164959      -1.13171746       0.00605194       0.01350586      -0.01452872
