13
Properties=species:S:1:pos:R:3:forces:R:3 Coordinates=T from=T ORCA-job=T run=T Energy:=T 110.5120698=T energy=-81378.48537531962 pbc="F F F"
C       -0.01691828      -0.08659547      -0.03276940       0.13980528       0.23766915       0.00666221
H        2.11540539       1.05343778      -0.13505793       0.33217262      -0.13026082      -0.24101399
Br      -2.07635375      -0.20091205      -0.05509440      -0.16634466      -0.11819269      -0.11760894
F        3.00529002       0.71818167      -0.40184412      -0.04777295      -0.03994745       0.13044656
C        0.47469601       1.32117183      -0.02440659      -0.59129838      -0.04756781       0.08219792
H        0.13857125      -0.53245626       0.95479358       0.13277125      -0.00255336      -0.02407402
N        0.44430612      -0.84530560      -1.15804147      -0.35645485       0.01138061      -0.03775287
H        0.16564208      -1.81598656      -1.06934623       0.12872627       0.09041462       0.00499907
H        1.44732260      -0.75386797      -1.21956480       0.23411500       0.06039681       0.01111435
C        0.16330965       1.93962521       1.23023919       0.07358105       0.01449201      -0.16436041
N       -0.08826820       2.33792943       2.31155539       0.06175971       0.16850165       0.09582172
C        0.18347523       2.09986903      -1.20088013      -0.01139193      -0.43465242       0.38097253
N       -0.04752829       2.69770893      -2.18906309       0.07033155       0.19031969      -0.12740413
