19
Properties=species:S:1:pos:R:3:forces:R:3 Coordinates=T from=T ORCA-job=T run=T Energy:=T 80.4731962=T energy=-84056.70279052599 pbc="F F F"
C        1.10382391       0.04840198       0.09612444       0.03554661       0.05630624      -0.01619934
H        1.67918217       1.89349676      -0.51233652       0.00449451      -0.00729739      -0.00718915
Br      -2.36646027      -1.31440442      -1.78617359       0.04562368       0.03495671      -0.01099813
F        2.43808754      -0.06211695       0.48838310      -0.00052101       0.01387767       0.02390515
C        0.76818255       1.53971822      -0.01291956      -0.01432921       0.03970515      -0.05138361
N        0.93046871      -0.63537726      -1.10774835       0.01274232       0.03070287       0.06545403
H       -0.05858903      -0.64175159      -1.39176314       0.02499587      -0.06198039      -0.05627623
H        1.19771765      -1.60549577      -0.97396464       0.01828315       0.01476174       0.00254641
N        0.43513706      -0.73759143       1.28461205      -0.04133503      -0.04549119      -0.04507435
O       -0.21824415      -0.14650089       2.13897312      -0.08805286       0.04990217      -0.00928062
O        0.66347812      -1.94496497       1.28013599       0.01053245       0.04890616       0.04502721
C        0.65362607       2.34634010       1.28896597       0.00148812      -0.06525611      -0.03927138
H       -0.32298886       2.23579109       1.75853931       0.01020228      -0.05763382      -0.05456568
H        1.41449041       2.05660322       2.01830558       0.01571897       0.02370585      -0.02436857
H        0.79342617       3.40611519       1.04000994       0.05176261      -0.08640140       0.02953286
C       -0.39558302       1.81198742      -0.97351801      -0.02489914      -0.00796587       0.02582922
H       -0.07651891       1.63113296      -2.00263291      -0.10133966       0.02930603       0.02894992
H       -1.26554295       1.17478675      -0.80304241      -0.00200002      -0.00905275       0.13225063
H       -0.70983369       2.85633947      -0.87912058       0.04108635      -0.00105170      -0.03888840
