17
Properties=species:S:1:pos:R:3:forces:R:3 Coordinates=T from=T ORCA-job=T run=T Energy:=T 169.1718466=T energy=-85494.12679158401 pbc="F F F"
C        0.00564798      -0.15076641       0.02610736       0.42935843      -0.06506921       0.43516369
H        1.53044839       1.21083181       0.24457612      -0.12496150       0.21631706      -0.05058474
Br      -2.05153075      -0.30915213       0.30981197       0.02815804       0.04964724      -0.09579486
F        2.73760725       0.15165955      -1.24592707      -0.16148332       0.07890556       0.04100560
C        0.44031979       1.31181590       0.11310893      -0.00691413       0.04998375      -0.08503807
N        0.48038721      -0.73825177      -1.08824759      -0.31549332      -0.80556343       0.21280187
H        0.49417816      -1.75791045      -0.96350751      -0.23840490       0.46973940      -0.10674992
H        1.56831520      -0.35074594      -1.22672225       0.49720795       0.16973738      -0.27048512
N        0.48955875      -0.89330956       1.34688717      -0.44583425      -0.18922564       0.08622523
O        0.77328210      -0.23258038       2.34344051       0.03759844       0.01597142      -0.19228213
O        0.54211753      -2.11959700       1.27245183       0.12105899       0.11375872       0.00965661
C       -0.13651721       2.10471342       1.20294744      -0.12583772       0.00258433      -0.05547811
N       -0.58893288       2.87911172       1.96645614       0.10287883      -0.17202511      -0.06348144
C        0.20629130       2.02098863      -1.23293320       0.05565645       0.09975893       0.02050122
H        0.90318574       1.59044698      -1.94832012       0.00394064       0.03272428       0.00017762
H       -0.82254829       1.92549326      -1.59685402       0.07859892      -0.13652723       0.19700838
H        0.42459008       3.08273238      -1.10194559       0.06447241       0.06928253      -0.08264583
