14
Properties=species:S:1:pos:R:3:forces:R:3 Coordinates=T from=T ORCA-job=T run=T Energy:=T 86.2630752=T energy=-26385.44242761385 pbc="F F F"
C       -0.09641656      -0.11647926       0.00961736       0.01643557       0.00064718       0.00918744
H        2.17185841       1.02185019      -0.17235306      -0.03619819      -0.05535679       0.00817724
Cl      -1.97829374      -0.35274891      -0.08566541      -0.01220912      -0.02860838      -0.01647080
F        2.98635984       0.60046158      -0.43984817       0.00166225       0.04153166       0.02119576
C        0.32286912       1.29911901       0.03404850       0.03622396      -0.01039496       0.01663898
N        0.42034981      -0.79514480      -1.15148351       0.00695841       0.00266878       0.01379724
H        0.22240062      -1.78734927      -1.09410270      -0.06059027       0.01219146      -0.02640921
H        1.42411908      -0.64854526      -1.16494319       0.04438712      -0.01301366      -0.07493332
C        0.23812895      -0.79587659       1.27920039      -0.00509974       0.00684408       0.05767432
N        0.53638542      -1.41990012       2.23242206       0.01739220       0.03131899      -0.03125936
C        0.12468883       2.00637813       1.25472248      -0.01557667       0.01468383       0.02033853
N        0.00419320       2.58498008       2.27701537       0.00269964       0.01959332      -0.00033045
C        0.11033977       2.04336293      -1.16550769      -0.01517241      -0.00069714      -0.00516686
N       -0.01935274       2.69134230      -2.14394244       0.01908726      -0.02140837       0.00756049
