13
Properties=species:S:1:pos:R:3:forces:R:3 Coordinates=T from=T ORCA-job=T run=T Energy:=T 51.3929032=T energy=-14084.86370504592 pbc="F F F"
C        1.12630510      -0.04696056      -0.18220371       0.00331903       0.00545780      -0.00302685
H        0.93010997       1.89748255       0.75703657       0.00597722      -0.00086168      -0.01164568
F       -1.77072142      -0.18593026       0.13258985      -0.00574500      -0.00564194       0.00069898
F        2.45537378       0.09065422      -0.63035118       0.00878777       0.00590764       0.00922935
C        0.47268702       1.32841057      -0.05718573      -0.00621448       0.00373917      -0.00290493
H       -0.59584380       1.08311059       0.15669715      -0.00155584      -0.01832893       0.00492440
N        0.38166760      -0.83547786      -1.08266413       0.00414455       0.00301583      -0.00026639
H       -0.62521970      -0.73350171      -0.74020317       0.00186400      -0.00587633       0.00568588
H        0.68599067      -1.80094235      -1.02623666      -0.01924428      -0.00837780       0.00185317
C        1.27267818      -0.64000318       1.18571164      -0.00646055       0.00022539      -0.00973392
N        1.39717826      -1.15560452       2.23516915       0.00362242       0.00867343      -0.00212989
C        0.60041451       2.08145287      -1.29987494       0.00340877       0.00218179       0.01024814
N        0.69231983       2.74164965      -2.26740484       0.00809640       0.00988564      -0.00293225
