17
Properties=species:S:1:pos:R:3:forces:R:3 Coordinates=T from=T ORCA-job=T run=T Energy:=T 91.4668436=T energy=-23944.720723873055 pbc="F F F"
C        0.34990464      -0.24860951       0.17629417       0.23092045      -0.04514957      -0.37281104
H        1.63768807       1.35610933       0.12590166       0.18203882      -0.00051604       0.06804846
Cl      -2.30392972      -0.20400742      -0.30846357      -0.03402323       0.11919347       0.02329821
F        2.46234129       0.67232036      -2.16447700      -0.22199258      -0.29459616       0.05659724
C        0.54921306       1.27262156       0.14298011       0.14454332       0.13655386       0.08817964
N        1.03659416      -0.95387955      -0.66719806      -0.24162642       0.03824497      -0.02979871
H        0.96093481      -1.96186337      -0.50632550      -0.14498939       0.27697771      -0.05264131
H        1.82491257       0.04963867      -1.78866059       0.44903511       0.26822431      -0.15089940
C       -0.16898847      -0.84744809       1.37796739      -0.10285788      -0.19357008       0.62126570
N       -0.34212980      -1.31504480       2.44997538       0.02867097       0.01272871      -0.22990918
C        0.05813652       1.96181348       1.40951105       0.07585503       0.02383989       0.07406530
H       -1.03097255       1.92543905       1.48051213      -0.00337509      -0.05226813      -0.05797272
H        0.48559936       1.50855538       2.30589015      -0.04742462      -0.04401659       0.09910398
H        0.39678300       2.99879641       1.36994594      -0.09574024       0.13994997       0.02528252
N        0.08592622       1.90044191      -1.07901966      -0.09163866      -0.38137809      -0.04294510
H        0.80912275       2.47371568      -1.48856746      -0.20068076       0.10257689       0.11471123
H       -0.78678589       2.38548091      -0.91657614       0.07328517      -0.10679513      -0.23357483
