13
Properties=species:S:1:pos:R:3:forces:R:3 Coordinates=T from=T ORCA-job=T run=T Energy:=T 82.2108483=T energy=-81378.16302711012 pbc="F F F"
C        0.07253551      -0.09900321      -0.02067836       0.01566405       0.00882773       0.02278918
H        1.74349861       1.11668428      -0.14883953      -0.01414782      -0.00384356      -0.01379712
Br      -1.96427776      -0.00027044       0.01483241       0.00738551      -0.00134431      -0.01089581
F        2.89586968      -0.08753566      -0.64678990      -0.00028380      -0.02081611      -0.02034001
C        0.64897631       1.31914392      -0.04854561      -0.00670273       0.02463832       0.02330838
H        0.41487764       1.84790952       0.87724196      -0.00577519       0.02396395       0.03976342
N        0.52693476      -0.81662950      -1.14138621       0.01727569       0.00411584       0.02636133
H        0.32864223      -1.80489674      -1.02519053       0.00152529       0.00709220      -0.02089515
H        1.59888170      -0.63267991      -1.11864392       0.00127201      -0.00837759      -0.00816410
C        0.38034089      -0.70644035       1.29234864      -0.00577544      -0.02019229      -0.01164113
N        0.64973972      -1.23439474       2.30953081      -0.00544771       0.00235418       0.00856638
C        0.17864366       2.10270634      -1.18327897      -0.00071768      -0.02022356      -0.02466884
N       -0.17006307       2.79764647      -2.06441078      -0.00427221       0.00380520      -0.01038652
