18
Properties=species:S:1:pos:R:3:forces:R:3 Coordinates=T from=T ORCA-job=T run=T Energy:=T 76.3736698=T energy=-10450.098016680106 pbc="F F F"
C        1.16758293      -0.01949515       0.23489663       0.01809791       0.02338001      -0.02631330
H        1.62760346       1.70714177      -0.89295498      -0.00286395      -0.02417274       0.03638802
F       -1.65341418      -0.50154158      -1.14573172       0.00296672       0.00883758       0.03864598
H        2.20189750      -0.10232223       0.59554411      -0.00592149       0.00679512      -0.00626176
C        0.95812591       1.47325021      -0.04956064       0.01614706      -0.01930330       0.01899616
N        1.05316624      -0.75612829      -1.03105304       0.00693832       0.01488105      -0.01392755
H        0.03983199      -0.75344768      -1.26007072      -0.00955087      -0.00617552       0.00985839
H        1.28606803      -1.72605114      -0.83325289       0.00226364      -0.00354824      -0.00188706
C        0.20703127      -0.54822393       1.31023968       0.01879753       0.01418236      -0.02361916
H        0.49412909      -1.57318146       1.57669038      -0.00031219      -0.01503200      -0.00922360
H        0.22808250       0.04855827       2.22941388      -0.02881777       0.02646303       0.00632857
H       -0.79355348      -0.57193817       0.87436069      -0.01639532      -0.02988077       0.00525854
N        1.45907382       2.26452225       1.10078351      -0.00097091      -0.00348445       0.00368806
H        0.68877854       2.23674666       1.76499845       0.00133679      -0.00082661       0.04108330
H        1.47884231       3.23429455       0.79416014      -0.00226274       0.00463445      -0.03267032
N       -0.43725413       1.77593450      -0.33995011       0.02321992      -0.01510705      -0.00645814
H       -0.96575928       0.93591788      -0.66404229      -0.00034968       0.02400215      -0.03333474
H       -0.47993252       2.46486353      -1.08178109      -0.02232296      -0.00564506      -0.00655139
