16
Properties=species:S:1:pos:R:3:forces:R:3 Coordinates=T from=T ORCA-job=T run=T Energy:=T 54.3486882=T energy=-11644.46226067671 pbc="F F F"
C       -0.05634149      -0.05909037      -0.26168371       0.00104087       0.00382436       0.01533871
H        0.03851090       1.89955200      -1.04601057       0.02768387       0.00749686      -0.01486734
F       -1.09154656      -0.41812993      -1.15661907       0.02702226       0.00870990       0.03048363
F        2.29881794      -0.51881223       1.52046277       0.01540216      -0.01843178      -0.01470329
C       -0.14940414       1.44593190      -0.06794269      -0.01464675       0.01642118      -0.00520101
H       -1.18612867       1.65548400       0.21397591      -0.03055586      -0.00615036       0.01384784
N        1.18912281      -0.41267938      -0.91079626       0.01402649       0.00372176      -0.01113603
H        1.08574475      -1.38997215      -1.17699426      -0.00598586      -0.00278254      -0.02182781
H        1.86002112      -0.42761366      -0.11016009       0.00438120      -0.03358386      -0.00264318
N       -0.33696864      -0.74024892       0.98794099      -0.02433891      -0.01375773       0.02405784
H        0.59549466      -0.74582874       1.45571255      -0.00777815       0.01764869      -0.00974052
H       -0.52620725      -1.70728262       0.73564298       0.01289792      -0.03222753      -0.00279677
C        0.80705586       1.99383415       0.98860285      -0.00402453       0.02698838      -0.01395949
H        0.54619805       1.60540440       1.97392961      -0.01008547       0.01548064      -0.02063654
H        1.83250162       1.67987949       0.80626823      -0.00278279      -0.02889123       0.03005802
H        0.75150906       3.08800205       1.01238076      -0.00225645       0.03553327       0.00372596
