19
	Energy:    2954.6863899
C          1.28368       -1.62210       -1.93958
C          0.30230       -0.43587       -1.90704
O         -0.78875       -0.49428       -2.81212
C         -0.24999        0.58684       -3.50206
C         -1.23091        1.75515       -3.40089
C         -0.84805        1.20089       -4.75748
C          0.89788        0.84303       -2.57939
C          0.54211        0.82991       -1.10387
O          1.68604        0.84096       -0.30013
H          0.77090       -2.52071       -1.53925
H          1.59902       -1.83820       -2.98281
H          2.18584       -1.43062       -1.32257
H         -2.32035        1.55638       -3.31247
H         -0.85507        2.80084       -3.41161
H         -1.43617        0.37354       -5.20850
H          0.03298        1.61180       -5.29432
H          1.90542        0.54288       -2.94137
H         -0.33116        1.44819       -0.80544
H          1.48057        0.23474        0.45722
