19
	Energy:    1501.1151544
C          1.40744       -0.18649        0.04606
O          0.02168        0.06182       -0.00430
C         -0.36723        0.79227        1.14129
C         -0.12834        2.28681        1.21096
C         -0.73225        2.55697        2.57534
C         -1.35768        1.20243        2.88555
C         -1.77622        0.49787        1.61259
O         -1.41620       -0.76187        2.11890
C         -0.38061        0.10875        2.49426
H          1.68249       -0.80393        0.92891
H          1.68734       -0.77275       -0.85293
H          1.99125        0.75875        0.00904
H          0.93851        2.59052        1.15983
H         -0.72265        2.75972        0.39852
H          0.05396        2.74193        3.33992
H         -1.46394        3.39239        2.54832
H         -1.94634        1.04496        3.81603
H         -2.71179        0.68951        1.04260
H          0.50948       -0.20759        3.08102
