19
	Energy:    1542.5083736
O          0.35668        0.07949       -0.01532
C         -0.79978        0.36403        0.72607
C         -2.07187        0.16521       -0.10532
C         -2.09423       -1.34245       -0.38088
C         -1.96332       -1.80357        1.06071
C         -2.62938       -0.73381        1.91846
C         -3.17077        0.30166        0.94694
C         -1.12748       -0.72866        1.72085
O         -0.37942       -1.03481        2.86107
H          1.11643        0.14882        0.61933
H         -0.74699        1.38333        1.17380
H         -2.17428        0.82233       -0.99484
H         -3.04918       -1.68211       -0.83905
H         -1.23813       -1.67503       -1.00754
H         -1.86285       -2.83208        1.46635
H         -3.06193       -1.09379        2.87553
H         -4.17373        0.02338        0.55392
H         -3.20927        1.31710        1.39923
H          0.31732       -1.66984        2.55442
