19
	Energy:     402.0879110
O          0.57144        0.13987        0.59610
C         -0.77265        0.47122        0.84448
C         -1.17899        0.41431        2.33701
C         -1.78177        1.81873        2.54007
O         -2.57424        1.94610        3.68941
C         -2.45926        2.09674        1.19658
C         -1.14849        1.91304        0.42514
C         -0.27882        2.88510        1.17062
C         -0.67512        2.82787        2.48731
H          1.13675        0.64198        1.23827
H         -1.42334       -0.23299        0.27804
H         -1.96147       -0.36699        2.46297
H         -0.34666        0.22271        3.04949
H         -3.39223        1.40623        3.53408
H         -3.25297        1.36241        0.92713
H         -2.87528        3.12902        1.11553
H         -1.14513        2.06537       -0.67482
H          0.44419        3.57667        0.75965
H         -0.31708        3.46893        3.28189
