19
	Energy:    2011.0471363
O         -1.72269        1.37057        1.67319
C         -1.54252        0.34933        0.73217
C         -2.40986        0.29682       -0.50516
C         -1.81615       -1.12652       -0.49549
C         -1.90827       -1.08957        1.04100
O         -0.42889       -0.94389       -0.77816
C         -0.21881        0.14291        0.08066
C          0.85122        1.15536       -0.21311
C          1.04228        0.07725        0.89449
H         -1.32610        1.03686        2.51852
H         -3.50099        0.31802       -0.26827
H         -2.16214        0.95683       -1.36868
H         -2.28108       -1.94764       -1.08061
H         -2.95242       -1.19718        1.42187
H         -1.18872       -1.71624        1.61582
H          1.16537        0.94810       -1.25836
H          0.41723        2.13858        0.06756
H          1.90408       -0.52205        0.53296
H          1.13602        0.66990        1.82856
