19
	Energy:    1779.4402617
O          0.24919        0.47676        0.12971
C         -0.58094        0.96121        1.15673
C         -1.29918       -0.10406        1.96552
C         -2.60686        0.67304        1.78304
C         -2.68599        2.18341        1.81437
C         -1.79991        2.99619        2.78016
O         -0.61704        2.33203        3.17853
C          0.16240        1.96962        2.05438
C         -1.90661        1.55245        0.68812
H         -0.30181       -0.08957       -0.47119
H         -1.40451       -1.06102        1.40771
H         -0.94308       -0.23776        3.00980
H         -3.49921        0.14971        1.36924
H         -3.64050        2.63867        1.47630
H         -1.55644        3.98692        2.33669
H         -2.39974        3.19133        3.69293
H          0.48823        2.86603        1.47994
H          1.08239        1.47810        2.43594
H         -2.36349        1.09090       -0.21759
