19
	Energy:    3133.9580056
O         -0.75389       -4.48346       -0.52940
C          0.11073       -3.72048        0.26161
C         -0.57464       -2.86004        1.33684
C         -0.17936       -2.25062        0.00962
C          0.98430       -1.26079        0.17030
C          1.46592       -0.70337       -1.16395
C          0.90817        0.67321       -0.80044
O          1.45697        1.12422        0.41151
C          0.47788        0.12117        0.51093
H         -0.95703       -5.28788        0.01307
H          1.20125       -3.85252        0.09223
H         -1.60320       -3.26336        1.45489
H          0.13381       -2.88472        2.19205
H         -1.08896       -1.96773       -0.56569
H          1.80300       -1.58271        0.85327
H          2.57703       -0.66442       -1.20099
H          0.98689       -1.11745       -2.07827
H         -0.07665        1.03677       -1.16446
H         -0.25107        0.45029        1.28114
