19
	Energy:     566.5411322
O          1.41458        0.81039        0.21251
C          0.36703       -0.07569        0.49704
C         -0.77425        0.66172        1.21283
O         -1.43550        1.53737        0.32588
C         -2.53624        0.64825        0.22497
C         -3.86123        1.28421        0.65905
C         -3.85743        1.12573        2.13253
C         -2.83481        0.30428        2.53762
C         -2.01646       -0.18002        1.38469
H          1.14758        1.31535       -0.59948
H          0.01659       -0.57314       -0.43698
H          0.75585       -0.87414        1.16353
H         -0.43298        1.15428        2.15179
H         -2.50907        0.19902       -0.79331
H         -3.91676        2.33811        0.31345
H         -4.73226        0.70870        0.28013
H         -4.59430        1.54579        2.80404
H         -2.66150        0.02753        3.56903
H         -1.98469       -1.28321        1.25531
