19
	Energy:    2634.9533641
O          1.47821        0.51030       -0.39049
C          0.13087        0.37330       -0.03866
C         -0.71446        0.35854       -1.31176
C         -2.16214        0.74754       -1.07970
O         -3.01943        0.18264       -2.03592
C         -3.11617        1.14823       -3.04300
C         -2.15654        0.83086       -4.16354
C         -1.84837        1.96334       -3.17295
C         -1.19613        1.70647       -1.81217
H          1.99080        0.46101        0.45788
H         -0.02397       -0.59551        0.48560
H         -0.16628        1.20824        0.63663
H         -0.55539       -0.44837       -2.05561
H         -2.63675        1.38923       -0.30411
H         -4.10447        1.36930       -3.49928
H         -1.33864        0.09298       -4.05257
H         -2.28729        1.34250       -5.14025
H         -2.26818        2.98232       -3.31185
H         -0.88597        2.57408       -1.18893
