19
	Energy:    1474.2942339
C         -0.07998       -0.09604        0.31286
C          1.37655       -0.52061        0.42875
O          2.26038       -0.34815       -0.64350
C          2.98610       -0.94628        0.40348
C          1.85904       -1.95402        0.64923
C          1.75516       -2.54586        2.06400
C          2.49958       -1.63086        3.02608
O          2.10402       -0.30640        2.77822
C          2.37167        0.05964        1.42131
H         -0.61031       -0.32004        1.26166
H         -0.13663        0.99348        0.10970
H         -0.56539       -0.64964       -0.51746
H          4.06431       -1.19563        0.29326
H          1.58059       -2.64744       -0.17655
H          0.67779       -2.61336        2.32745
H          2.20591       -3.55966        2.11332
H          2.27172       -1.91656        4.07433
H          3.60278       -1.71783        2.89460
H          2.64708        1.12931        1.28649
