19
	Energy:     787.9580995
C         -2.78357       -1.51075        1.52566
C         -1.53651       -0.67296        1.16913
C         -1.73585        0.47966        0.15457
C         -1.64703       -0.56025       -0.98936
C         -0.66337       -1.16652        0.01146
C         -0.14404       -2.59497       -0.09654
C          0.30162       -0.04863        0.01469
O          1.52027       -0.06879       -0.05554
O         -0.46872        1.04288        0.11420
H         -3.43511       -0.91514        2.19863
H         -3.39963       -1.83615        0.66748
H         -2.46042       -2.42175        2.07148
H         -1.01549       -0.40500        2.12093
H         -2.55369        1.22590        0.23831
H         -2.56785       -1.15879       -1.14184
H         -1.25797       -0.20820       -1.97420
H          0.51944       -2.82074        0.76438
H         -0.99564       -3.30672       -0.09424
H          0.42610       -2.71831       -1.04108
