19
	Energy:     185.4341857
O          5.00251        1.58000        1.41849
C          5.01551        0.42349        2.21731
C          3.86000        0.41092        3.21409
O          2.69867       -0.03307        2.54188
C          3.11051       -0.69586        1.35729
C          2.55711        0.03663        0.12337
C          1.08414        0.07484        0.12365
C         -0.12250        0.11918        0.10149
C          4.64647       -0.74782        1.35015
H          5.08843        2.36640        2.01620
H          6.01195        0.31680        2.70805
H          4.08219       -0.29267        4.04875
H          3.68807        1.41250        3.66477
H          2.69964       -1.73185        1.34408
H          2.94779        1.06835        0.09021
H          2.88338       -0.48539       -0.80337
H         -1.18150        0.14458        0.05753
H          4.97996       -1.68606        1.84409
H          5.11172       -0.70551        0.34053
