19
	Energy:    1291.5442276
C         -3.55364        1.48993        2.26573
C         -3.08559        2.66593        1.41827
C         -1.57014        2.57891        1.18869
C         -1.11479        3.55461        0.12218
C         -1.06954        2.03859       -0.14840
C          0.20927        1.26481        0.10037
O          1.19984        1.82248        0.55027
C          0.28627       -0.17620       -0.20485
O         -0.67659       -0.77526       -0.65667
H         -3.03287        1.49018        3.24716
H         -4.64703        1.56910        2.44266
H         -3.34451        0.53273        1.74182
H         -3.64973        2.66175        0.45913
H         -3.31591        3.61291        1.95219
H         -0.88736        2.68531        2.06062
H         -1.82921        3.94576       -0.63347
H         -0.06670        3.91993        0.12377
H         -1.92890        1.50358       -0.60760
H          1.21059       -0.71612       -0.02535
