19
	Energy:    1625.6573650
C         -0.38541        0.57728       -0.92512
C          1.00381        0.10829       -0.46273
C          0.92230       -0.64680        0.87281
O          1.62167       -0.66552       -1.45867
C          2.62763        0.31021       -1.66975
C          3.53019        0.62786       -0.49131
C          2.11105        1.15128       -0.48813
C          1.93963        2.61404       -0.85547
O          0.84362        3.14905       -0.85915
H         -0.82492        1.27902       -0.18500
H         -0.32477        1.07487       -1.91653
H         -1.06444       -0.29593       -1.02608
H          0.22244       -1.50448        0.78179
H          1.90780       -1.04834        1.18338
H          0.55271        0.03309        1.66969
H          2.48150        0.94088       -2.57737
H          3.74973       -0.27882        0.10798
H          4.33752        1.33749       -0.77017
H          2.81229        3.21582       -1.08987
