19
	Energy:      39.6872445
O         -2.15982        0.70942        2.87151
C         -1.82555       -0.46610        2.18533
C         -0.32800       -0.49052        1.86167
C          0.04504       -1.74424        1.06401
C          1.54112       -1.76456        0.72538
C          1.90036       -3.02527       -0.01064
O          2.37129       -2.97142       -1.13564
C          1.78527       -4.29686        0.65813
C          1.71078       -5.35664        1.22594
H         -1.74620        0.64336        3.77154
H         -2.12216       -1.35603        2.78606
H         -2.40969       -0.49266        1.24061
H         -0.07120        0.41552        1.27156
H          0.24843       -0.47478        2.81288
H         -0.21555       -2.64288        1.66502
H         -0.53675       -1.76802        0.11588
H          1.78654       -0.87656        0.10091
H          2.14839       -1.71438        1.65691
H          1.65314       -6.29023        1.71952
