19
	Energy:    2237.2859427
C          1.40824        1.39556        0.14080
C          1.07727       -0.09039        0.09334
C          1.81539       -0.76348       -1.05799
C          3.30067       -1.07034       -1.23364
C          2.79361       -2.15807       -2.23002
O          2.24610       -1.41191       -3.29552
C          1.24346       -0.96113       -2.41506
C          1.52198       -2.14667       -1.45658
O          0.42543       -2.97215       -1.73131
H          0.86735        1.87102        0.98587
H          2.49965        1.54260        0.28775
H          1.09756        1.88848       -0.80517
H          1.38188       -0.56713        1.04934
H         -0.01971       -0.21801       -0.03394
H          3.93813       -0.27551       -1.67849
H          3.72443       -1.51767       -0.30444
H          3.38013       -3.06569       -2.48524
H          0.16495       -0.92451       -2.69601
H          0.21117       -3.39897       -0.86352
