19
	Energy:    1711.8935053
C          1.42212       -0.14427       -0.02940
O          0.01838       -0.05121        0.00801
C         -0.34834        0.50817        1.24712
C         -1.70925        1.18519        1.18470
C         -2.18838        1.80041        2.48698
C         -0.92512        2.64430        2.54773
C         -0.42862        2.02345        1.24151
C         -0.44384        2.82549       -0.03576
O         -0.55179        4.04102       -0.00730
H          1.80410       -0.81465        0.77310
H          1.71593       -0.59700       -0.99850
H          1.89816        0.86056        0.01900
H         -0.26042       -0.13368        2.15225
H         -2.35489        0.46174        0.64143
H         -3.10803        2.39738        2.30746
H         -2.26475        1.04280        3.29732
H         -1.10575        3.73907        2.48674
H         -0.27602        2.33240        3.39522
H         -0.34364        2.32980       -0.99635
