19
	Energy:      73.0891178
C          1.34801       -0.12833       -0.37304
O         -0.04354        0.09040       -0.29420
C         -0.38402        0.74872        0.91418
C         -0.11082        2.22664        0.76708
O          0.71839        2.77550        1.47515
C         -1.88826        0.50589        1.18117
C         -2.19596       -0.98651        1.35950
C         -2.36951        1.25001        2.36033
C         -2.75553        1.88041        3.31301
H          1.69321       -0.82856        0.41855
H          1.56639       -0.60387       -1.35088
H          1.91404        0.82856       -0.35020
H          0.19256        0.33767        1.78029
H         -0.64645        2.80627        0.02258
H         -2.45841        0.87243        0.30037
H         -1.69082       -1.39136        2.26310
H         -3.29213       -1.13962        1.46312
H         -1.85742       -1.56515        0.47398
H         -3.11402        2.44858        4.13087
