19
	Energy:    2793.8920261
C          0.78203        4.07095        0.35224
C          1.49592        2.72216        0.39042
C          2.80625        2.65364        1.07060
O          2.67669        2.69820       -0.35021
C          0.67632        1.43500        0.26946
C         -0.27507        1.13869       -0.87555
C         -0.31759        0.10587        0.25188
C          1.20982        0.01192        0.25901
O         -0.29446        1.12097        1.22567
H          0.08595        4.14441        1.21359
H          1.50105        4.91692        0.40005
H          0.20064        4.15719       -0.58937
H          3.30948        3.59390        1.37905
H          3.24390        1.66582        1.32330
H         -1.16586        1.80419       -0.93447
H          0.15860        0.83534       -1.85778
H         -1.02261       -0.75129        0.32174
H          1.65229       -0.33565        1.21972
H          1.72188       -0.35442       -0.66210
