19
	Energy:     743.7490987
C          2.24238        1.53645       -0.14120
C          2.90481        1.83180       -1.48380
C          2.98892        0.58017       -2.35846
C          3.49835        0.66433       -3.80470
C          2.79119       -0.69603       -3.84397
C          1.73035       -0.11463       -2.90134
C          3.61444       -1.36619       -2.81402
O          4.10390       -2.48399       -2.82435
O          3.72302       -0.46579       -1.83241
H          2.82482        0.77490        0.41957
H          2.19918        2.46626        0.46407
H          1.20715        1.16441       -0.29463
H          2.31583        2.60999       -2.01507
H          3.93031        2.22172       -1.30861
H          2.97233        1.43546       -4.41788
H          4.60182        0.70135       -3.96139
H          2.55962       -1.25252       -4.77646
H          1.02964        0.57959       -3.42497
H          1.18577       -0.80467       -2.21522
