19
	Energy:    1295.5864139
O          0.43659       10.06404       -3.04513
C          0.23956        8.81022       -2.44894
C          1.57234        8.13596       -2.29765
O          1.65407        7.03854       -1.76863
C         -0.67171        7.94997       -3.36835
C         -2.19336        8.18175       -3.40464
C         -2.36105        6.78149       -4.02094
C         -1.38562        6.69403       -2.83386
C         -2.36584        7.54908       -2.01405
H         -0.40092       10.57933       -2.90687
H         -0.13730        8.96373       -1.41919
H          2.47640        8.62344       -2.64948
H         -0.18139        7.84056       -4.36920
H         -2.70424        9.09555       -3.77546
H         -3.35569        6.28757       -3.90069
H         -1.93690        6.62011       -5.04135
H         -0.89320        5.75781       -2.49550
H         -3.36147        7.09428       -1.79029
H         -1.98695        8.09511       -1.13034
