19
	Energy:    1395.5601992
O          1.08991        0.19507        0.36112
C          0.07549       -0.20225       -0.19025
C         -0.55500        0.59733       -1.29395
C         -0.97044        1.98625       -0.78728
C         -1.74085        2.75470       -1.87689
C         -3.24835        2.39229       -1.71209
C         -2.49944        1.94427       -2.92949
C         -2.07520        0.46337       -3.02660
O         -1.69105       -0.09034       -1.77903
H         -0.36311       -1.14544        0.12028
H          0.21688        0.69834       -2.09458
H         -1.58413        1.90689        0.13918
H         -0.05228        2.55502       -0.52536
H         -1.80626        3.85643       -1.75220
H         -3.58102        1.47864       -1.17261
H         -4.00749        3.11891       -2.07498
H         -2.68977        2.52288       -3.85905
H         -2.93818       -0.11441       -3.41733
H         -1.26126        0.34533       -3.77686
