14
Properties=species:S:1:pos:R:3:forces:R:3 Coordinates=T from=T ORCA-job=T run=T Energy:=T 24.7156492=T energy=-10163.455591473072 pbc="F F F"
C        1.08306298       0.06256654       0.13116993      -0.02934376       0.01404253      -0.00485082
H        1.85647652       2.06788053       0.12437850       0.01919396      -0.00855482      -0.01431460
F       -1.78147435       0.32199313      -0.45435719       0.01031998      -0.01294349       0.00913136
F        2.07462413      -0.38510276      -0.77301936       0.00718980       0.00471376       0.01953374
C        0.87653015       1.56859550       0.05165333      -0.00926584       0.02694734       0.00558233
H        0.11948402      -0.39332431      -0.11980926      -0.01838756      -0.04267322      -0.00477056
H        1.42588573      -0.23656058       1.13111278      -0.01144625      -0.00984449      -0.01757971
C       -0.02976894       1.98169348       1.23305221       0.01284849      -0.00477438      -0.00737345
H       -0.98203515       1.46184913       1.05856079       0.01800446       0.01919051       0.02432106
H        0.39088421       1.72106472       2.21726908      -0.01763678       0.01147666      -0.01939069
H       -0.19987685       3.06755536       1.21591299       0.01778499      -0.03911289       0.01185036
N        0.25670631       1.87330303      -1.24677132      -0.00175192       0.00969644       0.01441618
H        0.01213993       2.86366345      -1.24377628      -0.01286138      -0.00146092      -0.01311862
H       -0.65074733       1.34492119      -1.19147048       0.01013755       0.00509140      -0.01645346
