10
Properties=species:S:1:pos:R:3:forces:R:3 Coordinates=T from=T ORCA-job=T run=T Energy:=T 42.2635182=T energy=-10098.18517068146 pbc="F F F"
C        1.11607884      -0.06305059      -0.23678589      -0.01385692       0.02565508       0.00021856
H        1.15188168       1.92781325       0.59017624      -0.01930246      -0.01971612       0.00028964
F       -1.49393203       0.67803399       1.28008616      -0.03087054      -0.01979351       0.02295945
F        2.50268532      -0.23150710      -0.66521666      -0.00241134      -0.02570252       0.00764804
C        0.63115761       1.32655499      -0.16125727       0.00884140       0.01594852      -0.02226852
H        0.53568114      -0.66594163      -0.94257083       0.01257497       0.04023841      -0.01099159
H        1.07911357      -0.53627591       0.74896770       0.02001255       0.00234010      -0.01037301
H       -0.75895314       1.00244776       0.65907088       0.02019689       0.00843892       0.00328306
C        0.41721378       2.03852187      -1.36852923      -0.00474481       0.01588754       0.00341387
N        0.18163638       2.64490764      -2.33709852       0.01526309      -0.04561431       0.00947600
