11
Properties=species:S:1:pos:R:3:forces:R:3 Coordinates=T from=T ORCA-job=T run=T Energy:=T 127.6195324=T energy=-147260.2584182526 pbc="F F F"
C        0.95574745       0.00190833       0.00074475       0.00326803      -0.02931438       0.00008588
H        1.68167724       2.02357557      -0.00885477       0.03176352       0.03160140      -0.00184593
Br      -2.12428002      -0.39389537       0.00333356       0.01710997      -0.02006473      -0.00079600
Br       2.98372038      -0.32714093       0.01799007      -0.03768679      -0.03030861       0.00264090
C        0.70079911       1.53178489      -0.00192985       0.02760284      -0.00053267      -0.00454551
H        0.59053148      -0.49377987      -0.88656600       0.00647176       0.02004239      -0.03193741
H        0.57386512      -0.49396793       0.88082623       0.00815846       0.01775221       0.03192212
C        0.05607132       2.02030384       1.22506265      -0.02774804       0.00755072       0.02257105
N       -0.29431158       2.47681387       2.22344316      -0.00309217       0.00187042      -0.01650671
C        0.04200563       2.01556313      -1.22369909      -0.01003172      -0.00826223       0.01607053
N       -0.31584885       2.47139228      -2.21943539      -0.01666307       0.01512297      -0.01576232
