13
Properties=species:S:1:pos:R:3:forces:R:3 Coordinates=T from=T ORCA-job=T run=T Energy:=T 40.7586295=T energy=-24463.960393981983 pbc="F F F"
C        0.94740483       0.05860868      -0.10193736       0.02348988      -0.02727880       0.00003927
H        1.73167704       2.09379066      -0.25837341      -0.03255535       0.00607041      -0.00415273
F       -1.68880400      -0.03402523      -0.59781066       0.00945538      -0.01831615      -0.02696095
Cl       2.45054208      -0.43087623       0.86151147      -0.04067877      -0.00269348      -0.02732255
C        0.78085374       1.56514923      -0.13464137       0.00576506      -0.02675831      -0.00132554
H        1.11637507      -0.29849019      -1.11264172       0.01446637       0.00664195      -0.00965556
H        0.04919108      -0.41237036       0.29497188       0.01611534       0.03813473       0.01645319
N        0.37449368       2.07900525       1.33362387       0.03733369      -0.00773136       0.02808719
O        0.44222017       3.30036279       1.47982660      -0.00784211       0.00584951      -0.00416950
O       -0.02343643       1.30536229       2.18332492      -0.03389428       0.01228930       0.00422336
N       -0.19193699       1.91974047      -1.08659085      -0.00293117       0.00405884      -0.00158745
H       -0.43924347       2.89949099      -1.00809202       0.01343851       0.02790743      -0.01521203
H       -1.01516317       1.22055136      -0.97453814      -0.01414817      -0.02009498       0.02741542
