13
Properties=species:S:1:pos:R:3:forces:R:3 Coordinates=T from=T ORCA-job=T run=T Energy:=T 34.6781499=T energy=-34270.39525948537 pbc="F F F"
C        0.07803524      -0.10219974      -0.17661229      -0.01291861      -0.02316195      -0.00955203
H        1.60213918       1.31318630      -0.39904489      -0.01490472       0.00669483      -0.03541054
Cl      -1.70081208      -0.33550694       0.17008395       0.04304920       0.00807057       0.00716609
Cl       3.25343853       0.36598280       1.42313212      -0.00585971      -0.00923329       0.01805073
C        0.53558366       1.34049336      -0.11297858       0.00219743      -0.01538832       0.02965187
H        0.25245522      -0.52349558      -1.16032140      -0.00549608      -0.00264234      -0.03459524
H        0.63845518      -0.65277545       0.57539430      -0.01840298      -0.00183685       0.01857604
N        0.31980917       1.94845890       1.17245301      -0.02069871       0.01398001       0.03472029
H        0.49187807       2.94469012       1.08299016       0.00967253       0.00737711       0.00683696
H        1.07068703       1.57399210       1.75896131       0.02815591       0.00240963       0.00260183
N       -0.11827222       2.17874539      -1.21162347       0.01679156       0.00282897      -0.00793041
O       -0.30993751       3.36456726      -0.98191074      -0.03271703       0.00469427      -0.01358674
O       -0.33599184       1.63634264      -2.28586870       0.00524691       0.00306440      -0.01050800
