13
Properties=species:S:1:pos:R:3:forces:R:3 Coordinates=T from=T ORCA-job=T run=T Energy:=T 105.7493856=T energy=-88299.84087662103 pbc="F F F"
C        0.96990843       0.09539513      -0.22751246       0.01133064      -0.00085282      -0.00438406
H        1.81352248       2.07162707      -0.08741486       0.00258515      -0.00506667      -0.01319075
Br      -2.19307107      -1.05888017       1.08004343      -0.02784893       0.00285428      -0.00056437
Cl       2.42152473      -0.46582189       0.74065544      -0.00763096       0.00527219       0.02634146
C        0.81127025       1.62472668      -0.09268853       0.00105864       0.00529223      -0.01929288
H        1.17768279      -0.20242739      -1.25365857       0.00990929       0.01385924       0.02158861
H        0.09531330      -0.43958112       0.16223210       0.01660899       0.01362424       0.00180451
C        0.06549242       2.04130753       1.19133203       0.01464041      -0.02362909      -0.02650873
H       -0.90006895       1.53273257       1.25106957       0.00864913       0.01103399      -0.01378624
H        0.65389851       1.74221766       2.06214018      -0.00379338       0.00402153      -0.01958537
H       -0.07678806       3.12641879       1.21786375       0.00930787      -0.04240944       0.02112246
C        0.16283696       2.16390774      -1.29645693       0.00205804       0.01502874       0.04298228
N       -0.29052421       2.62632294      -2.25131427      -0.03303065      -0.00563043      -0.00982243
