12
Properties=species:S:1:pos:R:3:forces:R:3 Coordinates=T from=T ORCA-job=T run=T Energy:=T 142.7214297=T energy=-146257.06872403462 pbc="F F F"
C        0.95279118       0.08727783      -0.00898435       0.13523361      -0.03419100       0.00897600
H        1.81417562       2.03217260      -0.35801969      -0.05683528      -0.06809355       0.01713986
Br      -2.46492635      -0.53507291      -0.82297534       0.01218721       0.01889912       0.03710397
Br       2.77897050      -0.41411939       0.64550210      -0.02673083      -0.14530330       0.04053925
C        0.84281505       1.61701023      -0.05824319      -0.02795169      -0.01453321      -0.11767738
H        0.85414911      -0.33946431      -1.00277978       0.04401301       0.07625935       0.01884336
H        0.23099602      -0.38359670       0.65494788       0.07512270       0.05773382      -0.08343491
C        0.58786096       2.15552337       1.30313080      -0.09436342       0.14493921       0.17956905
N        0.39588749       2.63481452       2.33749892       0.02393884      -0.05947408      -0.19705608
N       -0.13793651       1.98519615      -1.07697483      -0.04821070      -0.00889681       0.08630211
H       -0.40897030       2.95852479      -0.97557038      -0.03548957      -0.03080005       0.02297035
H       -0.97778068       1.39400352      -0.99273731       0.00115176       0.06003581      -0.02457185
