12
Properties=species:S:1:pos:R:3:forces:R:3 Coordinates=T from=T ORCA-job=T run=T Energy:=T 32.1135841=T energy=-88736.08101374256 pbc="F F F"
C        0.29534470       0.10036584       0.59900549      -0.00709828      -0.00915619      -0.00767377
H        0.98486440       1.31065207      -1.00875099      -0.02317859      -0.01545820      -0.01381062
Br       0.58009886      -0.80354219      -2.83644682       0.00432092       0.02693860      -0.01472722
Cl       1.84639730      -0.57085324       1.30437762      -0.03946144       0.08614998      -0.02179974
C        0.49466239       1.48643532      -0.03981394       0.00169381      -0.05868316       0.03252996
H        0.01373968      -0.59487902      -0.19348702      -0.03199231       0.00204920       0.02815347
H       -0.41748842       0.13321059       1.42201794       0.06254045      -0.01696413      -0.00438537
N        1.19114412       2.42702484       0.86042454       0.02407835      -0.03892648       0.02081677
H        1.42250500       3.26613497       0.33735814      -0.03942634       0.02314853      -0.03542918
H        2.07676920       1.99794730       1.11199059       0.02023557      -0.01485074       0.03162167
C       -0.85047767       2.02890334      -0.30196877       0.13035305      -0.03900936       0.06445445
N       -1.89977915       2.48618094      -0.43400091      -0.10160240       0.05787314      -0.07783874
