15
Properties=species:S:1:pos:R:3:forces:R:3 Coordinates=T from=T ORCA-job=T run=T Energy:=T 106.4549833=T energy=-36342.85647010141 pbc="F F F"
C        0.82661195       0.00217654       0.06167589       0.00914488      -0.00788486      -0.03154971
H        1.73251487       1.85395382       0.63306070       0.01220141       0.00289242       0.00813804
Cl      -2.36467527      -0.80503881      -0.00949075      -0.01602425       0.00850226      -0.02155688
Cl       1.96807266      -0.55821762      -1.22062503       0.00611130      -0.00826953       0.01100902
C        0.78617888       1.53433606       0.18600286       0.01047702       0.01141891       0.00761510
H       -0.17118130      -0.44145248      -0.12581797      -0.00005634       0.01059357      -0.00390894
N        1.32445634      -0.62986552       1.36904768      -0.01494656       0.01828726       0.01970321
O        1.76573076       0.11152000       2.24212226       0.02066715       0.00698141       0.00605256
O        1.23556029      -1.83532362       1.45247119       0.01833750      -0.03294828      -0.01283768
C       -0.38806526       1.99083296       1.08238021      -0.00540270      -0.00026552       0.00592145
H       -1.32513833       1.56072951       0.72578449      -0.02556731      -0.00221642      -0.00357903
H       -0.21718268       1.65293296       2.10331045      -0.00230398       0.00038816       0.02252295
H       -0.45239479       3.08103279       1.08207895       0.01124648       0.02050533      -0.00069854
C        0.70673029       2.19325229      -1.12207164      -0.01007070      -0.01090001      -0.01799222
N        0.66640504       2.79409692      -2.10533964      -0.01592456      -0.01075490       0.00360955
