16
Properties=species:S:1:pos:R:3:forces:R:3 Coordinates=T from=T ORCA-job=T run=T Energy:=T 69.0324410=T energy=-22830.75949147612 pbc="F F F"
C        0.31947657       0.00067517      -0.00975520      -0.00276710       0.00075841      -0.00732295
H        1.63550891       1.60578703      -0.07693371       0.00087564       0.00696705      -0.01741400
Cl      -1.41507009      -0.47722756       0.10881234      -0.02007546       0.00645923       0.01740374
H        2.09358048      -0.32041876       0.89792801      -0.01098172       0.03513277       0.02733631
C        0.52768769       1.51681100      -0.06599534       0.00762726       0.00414582      -0.00264758
H        0.69912403      -0.48914516      -0.90547023       0.00892648      -0.00700806      -0.00780459
N        1.13634385      -0.66835046       1.15162039       0.01246152      -0.01404917       0.00595460
O        0.80515050      -0.11557429       2.35394318       0.02492569       0.00071172       0.01153642
O        1.11890437      -1.98717270       1.03563707      -0.01814292      -0.02721196      -0.02474632
N       -0.06761773       2.18399231       1.09238752       0.03463233      -0.00474057       0.01425775
H        0.45278144       3.04323286       1.25878055      -0.02627318      -0.02241562       0.02529997
H        0.13452768       1.53768755       1.87748898      -0.01980386       0.01260219       0.02631460
C        0.00533982       2.14163928      -1.36134222       0.00179550      -0.00005646       0.00010058
H        0.44086842       1.67025896      -2.25072963      -0.00848576       0.00890602      -0.00673897
H       -1.08167689       2.04670203      -1.39927231       0.00540966      -0.00395270      -0.03154938
H        0.24922960       3.21088735      -1.38504194       0.00201147      -0.00658630      -0.02290523
