15
Properties=species:S:1:pos:R:3:forces:R:3 Coordinates=T from=T ORCA-job=T run=T Energy:=T 97.3028105=T energy=-84058.74972860435 pbc="F F F"
C        0.64231388      -0.01996038       0.14906631       0.00673162      -0.02231897       0.01794522
H        1.75816342       1.78947931       0.39184401       0.00544013       0.00628649       0.00287618
Br      -2.47394749      -0.65743356      -1.13959634      -0.00452548       0.02110627      -0.00892486
F        1.40109020      -0.48191690      -0.89839624      -0.00064515       0.02316984       0.01910525
C        0.72013234       1.51010450       0.17830606       0.00060126      -0.02690414       0.02188889
H       -0.39082858      -0.39984122       0.03240510      -0.00991384      -0.00183660      -0.01115364
N        1.25131885      -0.66569721       1.39420474       0.02031966      -0.01370381      -0.01923497
O        1.51803923       0.04757741       2.35582977      -0.02187389       0.02467741      -0.01893458
O        1.41168772      -1.87191548       1.34449607       0.02211400      -0.00701142      -0.01122527
C       -0.10325559       2.08512180       1.24752047      -0.00706202       0.01703312      -0.01415051
N       -0.74099796       2.61336103       2.04905375       0.00641468       0.01768456       0.00826054
C        0.28962680       2.08318937      -1.19147117      -0.01217706      -0.00331042       0.00870234
H        0.98762139       1.75520236      -1.96253717      -0.01056705      -0.01531795       0.00640424
H       -0.70970914       1.72745497      -1.44843431      -0.01456280      -0.02484423      -0.00981794
H        0.28980620       3.17449628      -1.15553249       0.01756486       0.01578093       0.01082910
