13
Properties=species:S:1:pos:R:3:forces:R:3 Coordinates=T from=T ORCA-job=T run=T Energy:=T 36.3485957=T energy=-91790.49359197746 pbc="F F F"
C        0.19524475      -0.11551399       0.07746528       0.00182138       0.06583284       0.01922370
H        1.52122346       1.47893824       0.24959505      -0.14986073       0.09549356      -0.11336156
Br      -1.69248227      -0.58606582      -0.37766561       0.15597526      -0.05101903       0.07034294
Cl       3.53180373       0.53018239      -0.87040506      -0.01708148       0.03762366      -0.06028010
C        0.43307457       1.39107885       0.10280879      -0.13986561       0.03173660      -0.06667629
H        0.84829096      -0.63694785      -0.61919622      -0.10285113       0.04073922      -0.00215491
H       -0.08451398       1.81028068       0.96493981      -0.02638062      -0.00687672       0.04748328
N        0.46186097      -0.72457898       1.44730483      -0.04584127       0.08236994       0.24220167
O        0.15435922      -0.05256157       2.43081603       0.11984338      -0.32362549      -0.21714807
O        0.96082949      -1.83569260       1.47603087      -0.11160261       0.11495588       0.04708020
N       -0.01179008       2.00354280      -1.14337366       0.31830938      -0.00847343      -0.22176378
H        0.77235610       2.35668616      -1.68986320      -0.18675384      -0.12543421       0.25404936
H       -0.70063384       2.72732122      -0.98969792       0.17524379       0.04190253      -0.00342832
