12
Properties=species:S:1:pos:R:3:forces:R:3 Coordinates=T from=T ORCA-job=T run=T Energy:=T 122.7939146=T energy=-78931.15196538382 pbc="F F F"
C        1.02953336      -0.04823571       0.05220938      -0.00612840       0.00849011       0.01525731
H        1.58093370       1.96391492       0.53904247      -0.00039494      -0.01135698       0.00787901
Br      -2.64597893       0.23780056      -0.78117107       0.00540022      -0.01772980      -0.00136016
F        2.17497346      -0.25435258      -0.72837795      -0.00559289      -0.00679157      -0.01172314
C        0.69511817       1.44019888       0.16011955       0.01260878      -0.00597833      -0.01542166
H        0.18737136      -0.57014571      -0.41406699      -0.01694471       0.02364328      -0.04545219
H       -0.10802688       1.52552464       0.90964335       0.01686197       0.00357621      -0.03066877
C        1.29868022      -0.64737123       1.37039668      -0.01542683       0.03578707      -0.03251785
N        1.53565089      -1.11295053       2.39749233       0.02177672      -0.02109732       0.07929213
N        0.34201065       1.95455141      -1.15939439      -0.00803273       0.00131555       0.00463397
H        0.22465700       2.96163987      -1.09318768       0.01300111       0.01085579       0.02378201
H       -0.58668338       1.58023179      -1.38381723      -0.00017673      -0.02362639       0.01420011
