12
Properties=species:S:1:pos:R:3:forces:R:3 Coordinates=T from=T ORCA-job=T run=T Energy:=T 132.8605877=T energy=-92248.75593090753 pbc="F F F"
C        0.81818632      -0.05295301       0.15100059       0.00215630      -0.00380200      -0.00060354
H        1.76212286       1.87134049       0.43772108      -0.00773198      -0.02016676      -0.00007300
Br      -2.27302963      -0.62595267      -0.88180204      -0.01674846      -0.00836302       0.00250352
Cl       2.09782845      -0.56590273      -1.04470557      -0.00875226       0.00013940      -0.00909413
C        0.76118275       1.50327553       0.17674341      -0.00625038      -0.00366361      -0.00049065
H       -0.16974881      -0.44263227      -0.21622684       0.04182703      -0.01021858       0.01679069
C        1.16793716      -0.59329303       1.45227231       0.00597589       0.00972378      -0.01887193
N        1.45354492      -1.03102753       2.48092508      -0.01595792       0.00484672       0.01524828
C       -0.14952957       2.00754390       1.21632591      -0.02315695       0.01492396       0.01682949
N       -0.78102720       2.45235103       2.07047293       0.02186685      -0.00431562      -0.02452991
C        0.44046933       2.09035325      -1.13438853       0.01990021       0.01095302       0.02955459
N        0.29581176       2.64432242      -2.13285322      -0.00747597       0.01406218      -0.01150293
