12
Properties=species:S:1:pos:R:3:forces:R:3 Coordinates=T from=T ORCA-job=T run=T Energy:=T 30.5647475=T energy=-31215.44222968945 pbc="F F F"
C        0.95567236      -0.03193092       0.11953039      -0.01306822       0.01325625       0.01150309
H        1.51888403       1.99677009       0.60964286       0.00764056      -0.00131358      -0.00785574
Cl      -2.34118389       0.07454103      -0.84435098       0.00766880       0.00374087      -0.02468813
Cl       2.47769298      -0.41821081      -0.84867770      -0.02890749       0.02505897      -0.00107270
C        0.66230858       1.47370900       0.17126214       0.01716684      -0.00703450      -0.00892919
H        0.12025405      -0.52234170      -0.39213884       0.00925532      -0.01951049       0.00381232
H       -0.19367479       1.56642442       0.85930600       0.03333845      -0.00694155      -0.01382081
C        1.13471765      -0.59638079       1.45128623      -0.00131714       0.03369026       0.02489649
N        1.28574704      -1.00795216       2.51846877      -0.00461677      -0.01336872      -0.00678164
N        0.39277243       1.97953456      -1.16738720      -0.00896415      -0.01438775       0.02593924
H        0.26802943       2.98632105      -1.11360371      -0.01209987      -0.01189057       0.00309477
H       -0.51026118       1.58531726      -1.44972009      -0.00477385       0.01197563       0.00020349
