12
Properties=species:S:1:pos:R:3:forces:R:3 Coordinates=T from=T ORCA-job=T run=T Energy:=T 41.0468802=T energy=-150315.31051410202 pbc="F F F"
C        0.92520298      -0.08348614      -0.00929469      -0.00548791       0.01031275       0.00578604
H        1.15585674       1.97665806       0.69751247       0.00232147       0.02498230       0.01717817
Br      -2.50591309      -0.08459042       0.38253586      -0.00306076      -0.00853010       0.01810816
Br       2.74314603      -0.32224483      -0.86811967       0.00455330      -0.00563673      -0.00531041
C        0.51920599       1.37888838       0.05253682      -0.00059961       0.01092008       0.02365317
H        0.22245832      -0.65011170      -0.61688431       0.00749171       0.00653880      -0.00691998
H       -0.53477142       1.37117822       0.39607504      -0.00952621       0.01319284      -0.00907696
C        1.03025065      -0.63238545       1.33313597      -0.00119309       0.00087419      -0.02540056
N        1.18939304      -1.03282746       2.40272380      -0.00007692      -0.02716466       0.00592996
N        0.49544410       2.05994791      -1.27966062       0.00343548      -0.00868840      -0.00146642
O        0.68056814       3.27216001      -1.26564742       0.00552681      -0.00707417      -0.02081602
O        0.23847281       1.39466958      -2.26818368       0.00559824      -0.01419897      -0.00897138
