16
Properties=species:S:1:pos:R:3:forces:R:3 Coordinates=T from=T ORCA-job=T run=T Energy:=T 18.5874970=T energy=-12236.517457162527 pbc="F F F"
C        0.32316597      -0.06378349       0.23849815      -0.01136420       0.02780897       0.01885959
H        1.62317608       1.56039597       0.28607484       0.01981146       0.02936319       0.01337417
F       -1.06273813      -0.35700038       0.05774854       0.02617850      -0.02743307       0.02264174
F        1.90847490      -0.26610361      -1.83585887      -0.00721190      -0.01150136      -0.00944641
C        0.53640181       1.45471588       0.19186771       0.00740943       0.03293781       0.01686207
H        0.94981002      -0.45176257      -0.64718246      -0.00250310      -0.02005183      -0.02987063
C        0.72518910      -0.66268297       1.50861013      -0.01619997      -0.01887096      -0.02587564
N        1.07688301      -1.15263474       2.49623768      -0.00835230       0.00889120      -0.00956539
C       -0.16793555       2.21238055       1.32230520      -0.01597567       0.00238153      -0.00072173
H       -1.25269277       2.08512551       1.25543899      -0.02173286      -0.01279669      -0.01354999
H        0.14581946       1.85551638       2.30902026       0.01092187       0.02399707       0.00264446
H        0.04394508       3.28667292       1.26694852      -0.00050513      -0.01084040       0.00564344
C        0.16105652       1.96235585      -1.20771277       0.00483813      -0.01419932       0.01392348
H        0.73655738       1.35619626      -1.91698056       0.02614744      -0.00719074      -0.00357994
H       -0.91033379       1.83308501      -1.39590283      -0.00963313       0.03659866       0.01155028
H        0.40615922       3.02740539      -1.31334782      -0.01211370      -0.02532135      -0.00627553
