13
Properties=species:S:1:pos:R:3:forces:R:3 Coordinates=T from=T ORCA-job=T run=T Energy:=T 82.7407838=T energy=-78740.14471068427 pbc="F F F"
C        1.16197905       0.01692265       0.10225769       0.12207125      -0.01308096      -0.03410653
H        1.86148605       2.07518170      -0.01688719      -0.07527673      -0.10581934       0.10659596
Br      -2.58348158      -0.02658638      -0.75162655      -0.01885854      -0.06369333      -0.06966926
H        2.22576244      -0.14946744      -0.08926104       0.00458801      -0.07689813      -0.12707523
C        0.89461255       1.55614176       0.06284547      -0.14012757       0.08994401      -0.07076057
H        0.59398704      -0.42335791      -0.71874555      -0.08435177      -0.10162644       0.07901281
C        0.84721931      -0.68340186       1.34450408       0.05322436      -0.11802592       0.14796270
N        0.68839728      -1.27720350       2.32170421       0.03683211       0.10571920      -0.17123572
C        0.30017978       2.04551886       1.33021798      -0.19431003       0.32771414       0.28431569
N       -0.11502620       2.51969317       2.30060005       0.15319992      -0.11130946      -0.32032704
N        0.14333356       1.85633780      -1.15559557      -0.06976215       0.08758697       0.11544692
H       -0.12667501       2.83663711      -1.17002274       0.14644007       0.05354168       0.03116797
H       -0.75143828       1.33453956      -1.14065317       0.06317073      -0.06970716       0.02502571
