13
Properties=species:S:1:pos:R:3:forces:R:3 Coordinates=T from=T ORCA-job=T run=T Energy:=T 93.6756256=T energy=-148766.2818161486 pbc="F F F"
C        0.12204524      -0.15560394       0.19210038      -0.01120931      -0.00775065       0.00781095
H        1.55174390       1.37915253       0.15482755       0.03182821      -0.08052321       0.08332133
Br      -1.75331872      -0.55913086      -0.38857516       0.01036668      -0.00601133      -0.00670611
Br       3.48830262       0.60163676      -1.19646052      -0.08840833       0.05865566      -0.00740843
C        0.44411922       1.36706060       0.14267178       0.02389661      -0.01707403       0.00735741
H        0.77776175      -0.63634270      -0.53851740      -0.08304203       0.06999517      -0.04180872
C        0.29957507      -0.76399584       1.49908944       0.05800139      -0.02936147       0.03517280
N        0.42843687      -1.24077761       2.54178875       0.02761155      -0.00008251      -0.03461899
C       -0.04978245       2.07416683       1.33301542       0.04258889       0.01054619      -0.09308108
N       -0.40903345       2.64310961       2.27100561      -0.06376514       0.06601159      -0.04981802
N        0.04234416       1.95314852      -1.12191107       0.05584432      -0.09962896      -0.00267679
H        0.84239836       2.34852768      -1.60274351       0.00472251      -0.04198573       0.07187527
H       -0.71845339       2.61047834      -1.04713474      -0.00909083       0.06112280       0.03681823
