12
Properties=species:S:1:pos:R:3:forces:R:3 Coordinates=T from=T ORCA-job=T run=T Energy:=T 40.6067955=T energy=-15661.827980024582 pbc="F F F"
C        0.93064304      -0.11689294       0.13804393       0.02668747      -0.10134736       0.00939574
H        1.81219418       1.79965114       0.54403517       0.02809194       0.14633064       0.06829863
F       -1.41995200       0.52967023      -0.34424886      -0.02671451      -0.02539314      -0.06948496
F        2.14839705      -0.41201312      -0.55592405      -0.13068570      -0.01393323       0.12047596
C        0.85599491       1.40180758       0.18706565       0.12404656      -0.12207382      -0.00839949
H        0.04012052      -0.41411701      -0.44256197      -0.05640176      -0.01963620       0.12321543
H        0.62925700       1.75823235      -0.80888707      -0.02776317       0.01514967       0.02266113
C        0.98517768      -0.82717596       1.42256013      -0.03463640      -0.16048262       0.04616381
N        1.04690672      -1.49250903       2.36586473       0.07499025       0.15351345      -0.24307109
N       -0.19419273       1.99029386       1.08323491       0.16801928       0.00777558       0.00145165
O       -0.62233373       3.08224999       0.73885048      -0.12180770       0.11558804      -0.00326241
O       -0.36650862       1.48802275       2.18637851      -0.03009843      -0.01762605      -0.07817450
