14
Properties=species:S:1:pos:R:3:forces:R:3 Coordinates=T from=T ORCA-job=T run=T Energy:=T 164.4552620=T energy=-26974.4385053449 pbc="F F F"
C        0.85803820      -0.02795449       0.13922789      -0.01069596       0.09016826      -0.02875134
H        1.85085587       1.86897668       0.29312676       0.04437281       0.03805331       0.03019736
Cl      -2.09399029      -0.08186793      -1.61734926      -0.05749823      -0.03446793       0.00722429
F        1.97281585      -0.38055858      -0.63858790      -0.03081837      -0.04812061      -0.00405173
C        0.82963185       1.51578938       0.12823096       0.02193512       0.08620008       0.02853410
H       -0.04721456      -0.39964623      -0.36601003      -0.01213226      -0.01505530       0.00519493
C        1.01797808      -0.70554985       1.43135322      -0.02114271      -0.12075755       0.11676791
N        1.14561047      -1.36201858       2.37169862       0.00883363       0.09377395      -0.15419667
N        0.14309597       2.13617568       1.46527035      -0.07413062       0.01679369      -0.03473276
O       -0.66736634       3.03108554       1.30782251       0.02508738      -0.08287809      -0.06025435
O        0.58388534       1.76266727       2.53940014       0.03553562      -0.00054926       0.13313023
N        0.27014170       1.98915497      -1.04903909       0.09759395       0.01023992      -0.07990577
H        0.19431970       2.99553344      -1.08795272      -0.00113893      -0.00222312       0.01035862
H       -0.60724959       1.52224567      -1.31800076      -0.01967148      -0.02974551       0.02609861
