16
Properties=species:S:1:pos:R:3:forces:R:3 Coordinates=T from=T ORCA-job=T run=T Energy:=T 16.1103625=T energy=-22043.133263873893 pbc="F F F"
C        0.22011771      -0.07699990       0.24869730       0.02356895      -0.03691859       0.02218440
H        1.59191822       1.51002150       0.30812359      -0.01333425      -0.00187225      -0.01082723
F       -1.16242148      -0.31663479       0.07009565      -0.00508760      -0.00185887      -0.01843915
Cl       2.80888872      -0.38869599      -1.99964372      -0.00417048      -0.02804793      -0.01156800
C        0.50546114       1.42978072       0.18610882       0.00398392      -0.04516235       0.01215405
H        0.77433949      -0.57880787      -0.55651834       0.01430770       0.02857722       0.01192918
C        0.58682652      -0.67986441       1.54063845      -0.01105410       0.03398478      -0.02129011
N        0.85936176      -1.13830700       2.56311024       0.00432245      -0.01341692       0.02143083
C       -0.20349355       2.20901708       1.30039935       0.00932572       0.00366526       0.00071016
H       -1.29138475       2.12722247       1.20864019       0.02190346      -0.01444547       0.00112126
H        0.08015373       1.84910536       2.29450443      -0.01602590       0.00904941      -0.01052048
H        0.05814943       3.26989278       1.24347662      -0.01370051       0.01686838       0.00425340
C        0.15568844       1.95144814      -1.21239169       0.00366999       0.01157301       0.00522960
H        0.72819690       1.40028634      -1.96270169      -0.02400195       0.01813698       0.00089954
H       -0.91567387       1.85027065      -1.41438083       0.01275105      -0.01573023      -0.00636503
H        0.41692426       3.01109962      -1.29435763      -0.00318116       0.02831215       0.00025608
