14
Properties=species:S:1:pos:R:3:forces:R:3 Coordinates=T from=T ORCA-job=T run=T Energy:=T 96.2206131=T energy=-13676.951462184124 pbc="F F F"
C        0.25147148      -0.08770886       0.22186983      -0.02022430      -0.07887606      -0.01878210
H        1.61608928       1.48181705       0.22341179      -0.01009700       0.00953173       0.03033240
F       -1.10712471      -0.34852388      -0.07456141      -0.00370761       0.00869432      -0.00160148
F        2.11386261      -0.07659229      -1.58459463      -0.04487042      -0.00600457      -0.04333652
C        0.52363436       1.42585116       0.17951322       0.01540457      -0.00056096      -0.01570708
H        0.95887928      -0.44509355      -0.60967537       0.00027445       0.01359575       0.02148437
C        0.54236192      -0.71587835       1.50666617      -0.03149747       0.09502416      -0.03526707
N        0.78062240      -1.23863652       2.50848524       0.05240502      -0.05811102       0.02667032
C       -0.06799735       2.18480859       1.28322987       0.00982473      -0.01716933       0.01816632
N       -0.52812981       2.80445591       2.14175238      -0.03697596       0.03369561       0.02636120
C        0.11704362       1.98587152      -1.19690985       0.03980445       0.02850857      -0.03476394
H        0.69277340       1.39275893      -1.91316216       0.00774920      -0.05438033       0.01622535
H       -0.95859259       1.89834219      -1.36751251       0.03514481      -0.02364820       0.01820783
H        0.40382057       3.03744962      -1.27282925      -0.02264200       0.05402509      -0.01267901
