17
Properties=species:S:1:pos:R:3:forces:R:3 Coordinates=T from=T ORCA-job=T run=T Energy:=T 40.4236076=T energy=-18335.25323463741 pbc="F F F"
C        0.59620087      -0.15188604       0.00539028       0.02615757       0.04095153       0.00948516
H        1.38022653       1.46248796      -1.12091764      -0.00723301      -0.01352370      -0.01953936
Cl       0.03636227      -1.02863173      -1.55967689      -0.02338175       0.01475145      -0.01340812
H        3.57221370       0.42347895       0.79078032       0.01568097       0.00977432       0.01530919
C        0.70670348       1.35978660      -0.25278904      -0.00551114       0.02916565      -0.00177611
H        1.62163736      -0.50424496       0.15643829       0.02280483      -0.03093746       0.00417460
C       -0.31208693      -0.56669877       1.14363682       0.00310399      -0.00657061      -0.00113528
H        0.03606879      -0.05249200       2.04160200      -0.00314735       0.00980187       0.00820865
H       -1.35507692      -0.29109747       0.96497374      -0.01758997      -0.00544344      -0.00061699
H       -0.26320546      -1.64567435       1.30578971       0.00484196      -0.03382556       0.01646026
N        1.30323836       1.91799005       0.96794885      -0.01213853      -0.01197058       0.01025672
H        1.49940523       2.90428357       0.79232907       0.01258473      -0.01823186       0.00406179
H        2.24508909       1.45005150       1.05806047       0.00970434      -0.00125110      -0.00966719
C       -0.61316141       2.05963023      -0.57578119      -0.02185414       0.01165054      -0.01245772
H       -1.09645703       1.62826441      -1.45627282      -0.01873727      -0.00578866      -0.02828535
H       -1.30582514       2.00697247       0.26894183       0.00110381      -0.00184628       0.02304050
H       -0.43188542       3.12182519      -0.77704493       0.01252320       0.01555040      -0.01688274
