17
Properties=species:S:1:pos:R:3:forces:R:3 Coordinates=T from=T ORCA-job=T run=T Energy:=T 37.6184069=T energy=-11232.50875675234 pbc="F F F"
C       -0.01240997      -0.11792700       0.05328805       0.10635260       0.03731499      -0.01762447
H        1.56984907       1.24226894      -0.09326952       0.03300915      -0.04580346       0.05689507
F       -1.44782016      -0.11991881       0.24317129      -0.01813018      -0.02348927      -0.05216778
F        2.94960113       0.70748874       1.11584540      -0.00172024       0.00943682      -0.00721878
C        0.47015172       1.32075715      -0.05527140       0.03366559       0.04868852      -0.04683684
H        0.13037947      -0.58903065      -0.92439098      -0.03643196      -0.00417110      -0.02553182
C        0.65370860      -0.92522837       1.14400900      -0.02866497      -0.01721093       0.01413897
H        1.73799862      -0.67608336       1.12958445      -0.06686941       0.05666355      -0.00731111
H        0.28222072      -0.61847940       2.12643601      -0.06049915       0.02325705       0.01762298
H        0.43315991      -1.99212093       1.01871416       0.05211664      -0.04116794      -0.00198136
C        0.16356353       2.12850598       1.20952577       0.02982502      -0.00098199       0.03716581
H       -0.89902094       2.07110475       1.47689462       0.01342045       0.06601044       0.05471717
H        0.79163550       1.74668570       2.01360806       0.07962624      -0.01600064       0.03901360
H        0.44117168       3.18120963       1.06609733      -0.05750126      -0.02660882      -0.03561180
N       -0.06213084       1.91152832      -1.30375074      -0.03913029      -0.01937267      -0.05982316
H        0.33876256       2.83995148      -1.41785669       0.00420811      -0.03069683       0.02989523
H       -1.06472912       2.05253157      -1.19457070      -0.04883999      -0.00690036       0.01410003
