15
Properties=species:S:1:pos:R:3:forces:R:3 Coordinates=T from=T ORCA-job=T run=T Energy:=T 109.1597291=T energy=-22479.75995160433 pbc="F F F"
C        0.02754495      -0.06791485       0.08456980      -0.02197021       0.01582380      -0.04739143
H        1.62439702       1.30303182      -0.00702833       0.03486616      -0.03894029      -0.01370625
F       -1.39359727      -0.04029054      -0.01769759      -0.04610139      -0.03234151       0.04759411
Cl       3.67698998       0.18375987      -0.35893071       0.01802660      -0.00342721       0.02383264
C        0.52397763       1.37611564       0.05238191      -0.00015386       0.02660028      -0.04405724
H        0.39000366      -0.53051568      -0.83365374       0.02125480      -0.05476912       0.01782417
C        0.42320007      -0.84649133       1.31691643      -0.02754213       0.01807039      -0.05934557
H        1.51509356      -0.90284968       1.35268568      -0.02081408      -0.01013283       0.04949181
H        0.03803955      -0.35913411       2.21679155       0.06812117      -0.01233591       0.03412213
H        0.00745535      -1.85637508       1.27497556       0.02753809      -0.02924633      -0.05147537
C        0.15426930       2.10053327       1.28493545      -0.04171500       0.01066697      -0.00960435
N       -0.16385967       2.69507020       2.22253267      -0.00547954       0.07888656       0.04672156
N        0.02373667       2.02666569      -1.16033647      -0.01566518       0.00616055      -0.02811473
H        0.45521328       2.93541661      -1.28498752       0.01203086      -0.01943082       0.03226003
H       -0.98054495       2.15102836      -1.09359167      -0.00704893       0.04243489       0.00568895
