16
Properties=species:S:1:pos:R:3:forces:R:3 Coordinates=T from=T ORCA-job=T run=T Energy:=T 49.5879386=T energy=-83055.54506704755 pbc="F F F"
C        0.45945562       0.12222760      -0.02298078       0.01525525       0.05908161      -0.01289861
H        1.42443645       2.00651593       0.05858023      -0.01490700      -0.00440287      -0.02508806
F       -0.89788434      -0.31310556      -0.19388141       0.03570207       0.01610922       0.07484011
Br       3.14009286      -2.91134403      -0.12140882      -0.04969909      -0.00172649       0.00725205
C        0.39059136       1.66225824       0.10941646      -0.02025527       0.03849591      -0.04269574
H        0.97681238      -0.12779849      -0.94930840       0.02900898      -0.01240781       0.00360933
N        1.12203447      -0.47015749       1.06111357      -0.11412680       0.00195981      -0.04199977
H        1.65371755      -1.30959710       0.77790419       0.01645723      -0.00809232       0.06621977
H        0.50318742      -0.67318676       1.83809832       0.03223952       0.04899451      -0.03786219
C       -0.30648825       2.21526344       1.33835541       0.03005297      -0.01144633       0.00454450
H       -1.36437159       1.95240274       1.36270710       0.05699410      -0.03701337      -0.02870480
H        0.19030170       1.82335408       2.22787236       0.00325147      -0.06935686      -0.00395005
H       -0.21703215       3.30391536       1.36344540      -0.08553827      -0.00246310       0.01039911
N       -0.23723433       2.21829053      -1.17172632       0.07224427      -0.04410663       0.01839640
O       -1.32357926       2.77429912      -1.11599413      -0.05010522       0.01400894       0.07786616
O        0.40740505       2.05490227      -2.19733862       0.03034104       0.00540470      -0.06250091
