13
Properties=species:S:1:pos:R:3:forces:R:3 Coordinates=T from=T ORCA-job=T run=T Energy:=T 26.0740483=T energy=-14659.140011274636 pbc="F F F"
C        1.18217694      -0.07796758      -0.13376362      -0.00295266       0.00733743      -0.00804098
H        1.06705026       1.96365456       0.57330207      -0.01899257      -0.00908314      -0.01514820
F       -1.39944662       0.23172777       1.44391328       0.00470744      -0.00259005       0.01640111
F        2.57702380       0.10530958      -0.43475490       0.00429056       0.01086691       0.01008847
C        0.50744501       1.27583489      -0.05735368      -0.01194356      -0.00103872       0.00812295
H        0.81331693      -0.62936886      -1.00534131       0.01211489      -0.00161711       0.00865934
H       -0.51111508       1.07341701       0.42185170       0.00048655      -0.00125252       0.00340734
N        1.03676976      -0.72591479       1.12324046      -0.00289829      -0.00223697      -0.02453269
H        1.12388171      -1.73009342       1.00915551      -0.00669478      -0.00726156      -0.00592519
H        0.07060354      -0.49646952       1.46957670       0.01192053       0.01021548      -0.00898203
N        0.32839817       1.93890826      -1.36464250       0.01050013       0.00433449       0.00885435
O        0.40569384       3.16802996      -1.39381306       0.00757167      -0.02180756      -0.01455466
O        0.04244692       1.25645594      -2.34853963       0.00824309       0.00654600       0.01931646
