14
Properties=species:S:1:pos:R:3:forces:R:3 Coordinates=T from=T ORCA-job=T run=T Energy:=T 59.0260102=T energy=-22915.87952925583 pbc="F F F"
C        0.34954239      -0.17283133      -0.13967341       0.13138784      -0.20369562       0.27249072
H        1.73644898       1.44213346      -0.14020745      -0.22835029      -0.09870568      -0.12538349
Cl      -2.62489905       0.07798155       0.17442476      -0.06861045       0.08699659      -0.13342235
F        2.94583237       0.30250859       1.79313889       0.09595512      -0.04349660       0.01688795
C        0.64126143       1.31203789      -0.11734367      -0.00993049      -0.03778094      -0.02183918
H       -0.38593935      -0.48644055      -0.87342905       0.01556795      -0.06150467       0.02612627
N        0.97838210      -0.95285389       0.64538582      -0.03056935      -0.32521299      -0.05837182
H        2.23973075      -0.29537209       1.51225932      -0.14023359       0.06000958      -0.09278383
H        0.66704075      -1.91981108       0.52894761       0.11519625       0.13692256       0.06480863
C        0.21610631       1.95605655       1.13918000       0.03816135       0.26534914       0.49309563
N       -0.03052823       2.57837148       2.08147716       0.02327013      -0.14047245      -0.23744991
N        0.03884675       1.90265667      -1.30827601      -0.09396180       0.31102919      -0.01031251
H        0.35382830       2.86703009      -1.34789412      -0.27850135       0.11047253      -0.16875200
H       -0.98582429       1.89038977      -1.19268522       0.42099419      -0.04969086      -0.01531043
