15
Properties=species:S:1:pos:R:3:forces:R:3 Coordinates=T from=T ORCA-job=T run=T Energy:=T 59.1546371=T energy=-13464.394819516081 pbc="F F F"
C        1.25139285       0.09792819       0.26054078      -0.00129507      -0.00626118       0.00264044
H        1.79159308       2.15429341      -0.20249852       0.03732081      -0.00152107       0.00379910
F       -1.46942834      -0.48298498      -1.13007852      -0.01480624       0.01072182      -0.00292282
H        2.15283745       0.08122119       0.88066250       0.02296964      -0.01193192      -0.01968639
C        0.88816247       1.56330112       0.00866967       0.00504943       0.01537531      -0.00417004
H        1.50129415      -0.32199151      -0.72916511      -0.00491207       0.00046333      -0.01561376
N        0.16030696      -0.58829094       0.94475823      -0.01836891      -0.00472069       0.02639847
H        0.46022282      -1.54090400       1.13753216       0.01592092      -0.00178957       0.02448509
H       -0.61952319      -0.65955722       0.24757991       0.00262420      -0.01489707      -0.01132331
N        0.56065279       2.19082356       1.46621866       0.00394946       0.00460513       0.00407238
O       -0.51619936       2.73504502       1.64162410      -0.00284881      -0.00768601      -0.00770041
O        1.47161171       2.17796637       2.28734704      -0.02294657       0.00900579       0.01883884
N       -0.12619646       1.74097552      -0.93201642      -0.00780618       0.00494851       0.00222770
H       -0.60850388       2.62355582      -0.82602738      -0.00373842       0.01460817      -0.00099912
H       -0.78762763       0.91447525      -1.02288487      -0.01379992      -0.01382377      -0.01047144
