17
Properties=species:S:1:pos:R:3:forces:R:3 Coordinates=T from=T ORCA-job=T run=T Energy:=T 38.1919692=T energy=-75858.66433670082 pbc="F F F"
C        0.21190289      -0.03467813      -0.03620477      -0.01830222      -0.18645981       0.40881830
H        1.60844562       1.55097133      -0.07233427       0.10131100       0.01281025      -0.09618471
Br      -3.62811688      -0.04298679       0.51676902       0.07325786       0.02028575      -0.05361136
H        4.57730739      -0.90864417       1.45845827       0.06616377       0.01803527       0.01962964
C        0.51944219       1.44545229      -0.10284094       0.04555983      -0.20349620       0.03857074
H       -0.81397193      -0.31750014      -0.29639551      -0.12009533       0.11106683      -0.03223930
N        1.04043943      -0.88223023       0.44554871      -0.17353731       0.16567818      -0.14152423
H        3.87038185      -0.77346492       1.27510191      -0.10376051      -0.03400211      -0.03051232
H        0.56545880      -1.79067036       0.51460277       0.18674707       0.08954192      -0.10455415
C       -0.06200079       2.10501562       1.16572637      -0.05632184      -0.01605743       0.03147280
H       -1.15366701       2.08827871       1.13704963      -0.04889390      -0.08914290       0.05904293
H        0.26041729       1.55151927       2.05377143      -0.01057174       0.12408283      -0.01109312
H        0.26549961       3.14879956       1.26296083       0.03655075      -0.05952903      -0.06642742
C       -0.06442958       2.07884028      -1.37016304      -0.00264405       0.07125030      -0.01907836
H        0.33868760       1.63345541      -2.28537714      -0.03255820      -0.09827153       0.01134024
H       -1.15282075       1.97868076      -1.37398841      -0.01805905      -0.11656323      -0.06133417
H        0.15712255       3.14600564      -1.41424950       0.07756264       0.18389814       0.04858812
