13
Properties=species:S:1:pos:R:3:forces:R:3 Coordinates=T from=T ORCA-job=T run=T Energy:=T 24.6647232=T energy=-11958.348350692868 pbc="F F F"
C        0.83393963       0.11063683      -0.20381958      -0.01425086       0.01837649       0.01016269
H        0.06521273       0.72982848       1.66608620       0.01726489      -0.00251193      -0.00565023
F       -0.30066795      -0.61304918       2.45000428       0.00417495      -0.02039442      -0.00706669
H        1.43361175       0.45025659      -1.06284945      -0.02582460       0.00281746      -0.00165331
C        0.66324780       1.22531749       0.82348478       0.01745832      -0.00795456       0.02344891
H       -0.16569511      -0.15041834      -0.57598236       0.00312093      -0.01313141      -0.00901371
H        1.61574643       1.56457895       1.22700876      -0.00685359       0.03352907       0.01337220
N        1.51866454      -0.98708281       0.49611385       0.01302532       0.00186330       0.01015149
H        1.43498602      -1.82841834      -0.07011762      -0.01003842       0.00193732      -0.01416024
H        0.93303733      -1.13067254       1.34543615      -0.00598205      -0.00262690       0.01078055
N       -0.04315621       2.41725924       0.32879056       0.00914135      -0.02726457      -0.01273790
O       -0.91246978       2.28383918      -0.53619443       0.00362738      -0.00385177      -0.02017477
O        0.22754524       3.50588589       0.84400083       0.00378278       0.01194730      -0.00205598
