15
Properties=species:S:1:pos:R:3:forces:R:3 Coordinates=T from=T ORCA-job=T run=T Energy:=T 58.3109746=T energy=-12673.578079058167 pbc="F F F"
C       -0.00424933      -0.12332415       0.14149780      -0.00320077       0.01837097      -0.00897211
H        1.61313229       1.16703556       0.09121256      -0.01627035      -0.00061640       0.01861916
F       -1.42472017      -0.14237950       0.30304904      -0.00969885       0.01274755       0.00082650
F        2.90182442       0.04264938       0.24708139       0.01066142       0.00184724       0.01157908
C        0.49981529       1.32397840       0.04554050      -0.00094255       0.01197363      -0.01730661
H        0.14485554      -0.59365408      -0.84311185       0.00077633       0.01229332      -0.02154603
N        0.62869189      -0.78905006       1.22343028       0.00131371       0.00499735       0.01831450
H        1.65561250      -0.58438105       1.05984598       0.01831803      -0.00779503      -0.01246280
H        0.49138672      -1.79153864       1.12183205      -0.00783832      -0.00379663       0.00283036
C        0.06799985       2.13173734       1.18152999      -0.01082317       0.01109518       0.03117474
N       -0.26553836       2.84241883       2.03028950       0.01213008      -0.02577128      -0.02703077
C        0.09448254       2.00638019      -1.27176547      -0.00468164      -0.01458097       0.00228695
H        0.55787997       1.48718490      -2.11584915       0.02294572      -0.00592774       0.02263669
H       -0.99079593       1.99499543      -1.41464958      -0.00325832       0.00857854       0.02068317
H        0.43261876       3.04667902      -1.28943751      -0.01377798      -0.02767815      -0.02723004
