14
Properties=species:S:1:pos:R:3:forces:R:3 Coordinates=T from=T ORCA-job=T run=T Energy:=T 155.1550199=T energy=-22915.20337726443 pbc="F F F"
C        1.09473553       0.05648675      -0.03987730      -0.00728201       0.02057663       0.00496738
H        1.71198416       2.10116109       0.14413569      -0.01935741       0.01127883       0.01956699
F       -1.46466576      -0.23097621       1.46797258       0.02628179      -0.03635153      -0.01066639
Cl       2.85641134      -0.13809432      -0.81211402      -0.01452993      -0.01179493      -0.02642942
C        0.76661370       1.58567962      -0.05304833       0.01017696      -0.00012191      -0.02027852
H        0.50839981      -0.49200422      -0.78241576      -0.02451081       0.01575421       0.01255415
N        1.08545295      -0.44946101       1.27429927       0.00513462       0.00938942       0.02589612
H        1.31673882      -1.43923503       1.23360326      -0.00133189      -0.00967992      -0.00324033
H        0.03811253      -0.40501848       1.54614814      -0.01737155      -0.00001323       0.01246046
N       -0.22201045       2.02977622       0.92586941       0.00991457      -0.01593459      -0.01905986
H        0.25408410       2.03580680       1.82392723      -0.01528192       0.01376221      -0.01303800
H       -0.94115610       1.27696545       1.04058916       0.02304961       0.00952739       0.00633674
C        0.34641943       1.99457680      -1.41028720       0.01623170      -0.00321867      -0.01321067
N        0.01851377       2.31279003      -2.46979387       0.00597446       0.00106074       0.03515512
