14
Properties=species:S:1:pos:R:3:forces:R:3 Coordinates=T from=T ORCA-job=T run=T Energy:=T 106.5343995=T energy=-24273.894141666966 pbc="F F F"
C        0.68472863       0.09719458      -0.15381014       0.00316825       0.06184758      -0.04257088
H        1.89388222       1.64377997       0.80276483       0.00587270      -0.01847472       0.02263395
Cl      -1.88241378      -2.54776553       1.20858069       0.02806129       0.01194496      -0.03281424
H        1.39943549      -0.22463576      -0.91896902       0.03411381      -0.01060875      -0.02435697
C        1.02176867       1.59346387       0.15399713       0.02266800      -0.00272621      -0.01189572
H       -0.30934699       0.07762381      -0.60695622      -0.04154270      -0.02758809      -0.01208281
N        0.74702103      -0.67222268       1.05974681      -0.00788484      -0.00571750       0.02194792
H        1.44660457      -1.39944895       0.98566252      -0.01713340      -0.03001444       0.05037919
H       -0.15004202      -1.15140250       1.24011514       0.04066810      -0.04715887      -0.01243738
N       -0.12274993       2.18867065       0.97459709      -0.07498997       0.11852167      -0.07413891
O       -1.19773888       2.28749026       0.40816978       0.02839605       0.03673425       0.08656260
O        0.12511065       2.50193796       2.12350523      -0.00085406       0.01084702      -0.00804226
C        1.23437632       2.41364907      -1.03635261       0.03014179      -0.08413481      -0.02552374
N        1.48023810       3.00932234      -1.99344695      -0.05118016      -0.01182054       0.06188053
