13
Properties=species:S:1:pos:R:3:forces:R:3 Coordinates=T from=T ORCA-job=T run=T Energy:=T 63.8013813=T energy=-11956.412011299224 pbc="F F F"
C       -0.04475949      -0.10266386       0.04413398      -0.01060843      -0.02648774      -0.00492016
H        1.69807522       1.13750502       0.07210220       0.01118726      -0.01464523      -0.00567765
F       -1.45156643       0.00883518       0.31286717      -0.02379377      -0.00038386       0.00487012
H        2.98739031       0.37788165       0.65323607      -0.00265514       0.01676319      -0.02030487
C        0.55361553       1.28547920      -0.00944770      -0.00010162      -0.02249145       0.02092404
H       -0.01788524      -0.55681464      -0.94992500       0.00519762      -0.02256165      -0.01849654
H        0.23111096       1.88742601       0.83595660       0.01552348       0.04138865      -0.01468264
N        0.57972308      -0.84542182       1.08403056      -0.00781355       0.00580379      -0.02865953
H        1.58632536      -0.57703719       1.11882580      -0.02445171       0.01890278       0.01806668
H        0.51945272      -1.84011369       0.89396380       0.01226803       0.01208045       0.01230551
N        0.23048085       2.02040046      -1.23223646      -0.00780890      -0.00443074       0.02474972
O        0.03994149       3.24084438      -1.14321165       0.01490259      -0.02517430       0.00482045
O        0.25292060       1.41307723      -2.31191304      -0.00028206       0.02461318       0.00803420
