13
Properties=species:S:1:pos:R:3:forces:R:3 Coordinates=T from=T ORCA-job=T run=T Energy:=T 30.1780009=T energy=-11955.706533139628 pbc="F F F"
C       -0.11980568      -0.08853306      -0.28011861       0.11472869       0.01724443       0.01125133
H        1.79797444       0.88919439      -0.18137796      -0.14389215       0.01766206      -0.04573489
F       -1.46646785       0.21323066      -0.32056389       0.20668169       0.00656793      -0.00039783
H        2.93075656       1.26758957       2.50711950      -0.10502567       0.06528291      -0.10726089
C        0.73902920       1.16728734      -0.02250999      -0.04479516      -0.07950630      -0.02530092
H        0.05877185      -0.86423419       0.46240542      -0.06701359      -0.00520472      -0.04719656
H        0.42880699       1.89249051      -0.78247274       0.17496739      -0.02499911      -0.11338767
N        0.22626316      -0.70553522      -1.63600172       0.11861474       0.08836984       0.01433682
O       -0.11811493      -0.08451650      -2.64249692      -0.04601122      -0.05162861       0.09301160
O        0.91966656      -1.72849372      -1.64042928      -0.16002155       0.24928721       0.16093237
N        0.53486320       1.65796810       1.32222578      -0.06541132      -0.05009388       0.19381506
H        0.26653995       2.64135456       1.31654024       0.07847012      -0.22509429      -0.03019223
H        1.43278974       1.54920457       1.88239555      -0.05839963      -0.00923070      -0.11245549
