16
Properties=species:S:1:pos:R:3:forces:R:3 Coordinates=T from=T ORCA-job=T run=T Energy:=T 50.2267129=T energy=-92859.83967040434 pbc="F F F"
C        0.26542573      -0.04712876      -0.23155648      -0.03208623       0.00802447       0.00894639
H        1.44577977       1.62577626      -0.55948816      -0.02724608       0.01237565      -0.02549612
Br      -1.55300515      -0.61133163       0.29795808       0.04641164      -0.04483234      -0.00981309
Cl       2.70146475      -0.49230873       2.03294728      -0.00222813      -0.02457119      -0.00882726
C        0.41322953       1.47489058      -0.23679936       0.00577054      -0.00480447       0.03469117
H        0.97752591      -0.50480126       0.48343532      -0.04350433       0.04677558      -0.01079057
N        0.60778701      -0.63818936      -1.60346773      -0.02012896       0.00836726       0.00180498
O        1.51824898      -0.08332902      -2.20169518       0.02566895      -0.00406570       0.04274857
O        0.03530113      -1.64195032      -1.98622235      -0.00816906       0.01551836       0.01516613
C        0.26620724       2.06263897       1.17228728       0.01994829      -0.01196629      -0.02185790
H       -0.76050987       1.94363984       1.53793188       0.06187428       0.03642036      -0.00745636
H        0.95205152       1.57384469       1.87121684      -0.01856882       0.01555587      -0.03343043
H        0.49761761       3.13381662       1.12974265      -0.01115668      -0.03409469       0.04147071
N       -0.47440319       2.07906035      -1.24573828       0.05775693      -0.01124095       0.01906730
H       -0.04747126       2.92875933      -1.59894026      -0.04509954       0.00709282       0.02319494
H       -1.34865682       2.34241352      -0.80016920      -0.01126084      -0.00594601      -0.07237289
