13
Properties=species:S:1:pos:R:3:forces:R:3 Coordinates=T from=T ORCA-job=T run=T Energy:=T 38.8609048=T energy=-91790.55283142078 pbc="F F F"
C        0.32904529      -0.04848398      -0.26019250      -0.07249114       0.07456196       0.14159476
H        1.66904280       1.50414913      -0.71002575      -0.03079156      -0.00047778      -0.08753619
Br      -1.46478247      -0.33707167       0.52336676       0.03354611      -0.06064140      -0.05865868
Cl       2.78473732      -0.33718819       1.89779259      -0.00237240      -0.01025415      -0.00148876
C        0.65627956       1.43112060      -0.31456989       0.02425730      -0.00336551       0.05882379
H        1.05345383      -0.53934209       0.42077492      -0.01569252       0.01632828      -0.07110879
H        0.72427681       1.74658946       0.73017416       0.01673168       0.05193962       0.05235784
N        0.44337598      -0.72997189      -1.61471037       0.03008413      -0.05744112       0.10579566
O        1.33998971      -0.30872404      -2.32969506       0.07714785       0.07455615      -0.08809555
O       -0.26101284      -1.68857310      -1.87478378      -0.10671664      -0.00975660      -0.01101696
N       -0.27553690       2.20921242      -1.13990259       0.03833853      -0.07297290      -0.01772924
H        0.18519058       3.04902955      -1.46918827       0.01696786       0.02285749       0.01423935
H       -1.06830478       2.50139188      -0.57809771      -0.00851896      -0.02782555      -0.03523810
