15
Properties=species:S:1:pos:R:3:forces:R:3 Coordinates=T from=T ORCA-job=T run=T Energy:=T 59.9335893=T energy=-150817.26159104856 pbc="F F F"
C        0.18471007      -0.01118557      -0.25064920      -0.04768797      -0.04390889       0.00881536
H        1.49637053       1.54573678      -0.68470066       0.02749151       0.05913593       0.02087797
Br      -1.66014649      -0.39691243       0.30486049      -0.00961544      -0.08677365      -0.04481035
Br       2.78125588      -0.17298542       2.28357320       0.00125346      -0.05265171      -0.01935020
C        0.48223971       1.49146265      -0.27467887      -0.00382859      -0.03098704       0.02700764
H        0.83979730      -0.51146163       0.47610447       0.04332055       0.02612682      -0.01667554
N        0.48250960      -0.68558520      -1.59582424      -0.00830408       0.01959312      -0.02135053
O        1.31492123      -0.14623911      -2.30797473       0.07819397       0.06893559       0.04794076
O       -0.05119322      -1.75005231      -1.84462732      -0.11221850      -0.05393937       0.02916804
N        0.37536721       1.98418186       1.09752376       0.00148421       0.01949646      -0.00588078
H        0.80154461       2.90631359       1.12676407       0.03145283       0.03718130       0.00916282
H        0.95654116       1.39427763       1.70907813       0.00289416       0.07980597      -0.02099075
N       -0.40491091       2.19922503      -1.19320454       0.01163512      -0.04890539      -0.04279451
H        0.03391839       3.06040934      -1.49909828       0.05182106       0.00408182      -0.00420462
H       -1.23744503       2.45595215      -0.67233075      -0.06967679      -0.00818067       0.02686922
