15
Properties=species:S:1:pos:R:3:forces:R:3 Coordinates=T from=T ORCA-job=T run=T Energy:=T 62.2358190=T energy=-23267.532998005754 pbc="F F F"
C        0.07873321       0.12730870      -0.43085930       0.02592705       0.01212791      -0.01564387
H        1.38153435       1.65875673      -0.82840192      -0.02460967       0.07303593      -0.03551212
Cl      -1.54709962      -0.33735501       0.16629999      -0.01727346      -0.01650729      -0.04352866
H        2.29013799      -1.03649469       2.04841389      -0.04812908       0.04359253      -0.13064046
C        0.37089639       1.59746796      -0.42055461       0.02324389      -0.01636967       0.01126458
H        1.90741193      -0.81409754       1.43988169       0.03156014      -0.05232419       0.12706681
N        0.59182303      -0.64914561      -1.44720703       0.02548910       0.03958234       0.00018287
O        1.62449067      -0.21903506      -2.05256129       0.04609845      -0.02777242       0.03667429
O        0.11111450      -1.77375875      -1.72399328      -0.06879895       0.03885581       0.08799075
N        0.29439736       2.14786220       0.97066818       0.05511053      -0.09185418      -0.04403827
H        0.94705234       2.92588103       1.04734133      -0.02268619       0.02333047      -0.04404995
H        0.63229395       1.43587570       1.61360282      -0.03709339      -0.03407644      -0.03401084
N       -0.49292750       2.38325189      -1.32633675       0.05273810      -0.03518364       0.06587225
H       -0.19366895       3.35641105      -1.27175285      -0.05575503       0.03512666      -0.00569278
H       -1.43302611       2.35946698      -0.93503608       0.00809086       0.00239381       0.02276919
