18
Properties=species:S:1:pos:R:3:forces:R:3 Coordinates=T from=T ORCA-job=T run=T Energy:=T 52.4948097=T energy=-27606.227468976926 pbc="F F F"
C        1.00342565       0.00924309       0.06001088       0.01349006      -0.02930344      -0.03032697
H        1.79152263       1.86969374      -0.36638870      -0.02503203       0.04727977      -0.02543016
Cl      -2.22508675      -0.48026387      -0.58407097      -0.01695635      -0.03099292      -0.00960260
F        2.35596129      -0.13408381       0.45061722      -0.01164755      -0.03503054       0.03409070
C        0.78444986       1.53485307      -0.09560083       0.02867845      -0.03746927       0.01499928
N        1.01963474      -0.82312411      -1.25554028      -0.00420937      -0.00484726      -0.05666699
O        1.37235721      -0.23145666      -2.26319450       0.00986884       0.03109321       0.00412970
O        0.84393071      -2.01613296      -1.15337147       0.00722764      -0.03271351       0.04773291
C        0.24202901      -0.68356595       1.10738606       0.00900344       0.01239183       0.02338190
N       -0.04124842      -1.12852540       2.13410233      -0.01596902      -0.06758392      -0.02162009
C        0.41312163       2.11748294       1.27884661      -0.00466198       0.03215147       0.00448759
H       -0.59423149       1.79733081       1.54947505      -0.01729712       0.01237967       0.05865163
H        1.09775023       1.81527350       2.07502573       0.03319518      -0.02833641      -0.03824445
H        0.41557547       3.20773534       1.22448594       0.03670833       0.07821582      -0.01490012
C       -0.19663841       2.05144650      -1.15454463      -0.01311309      -0.00982729       0.01630337
H        0.02587059       1.67491438      -2.14970971       0.06225000       0.00690257      -0.00097317
H       -1.21699560       1.76181646      -0.91645230      -0.06041186       0.00643026       0.01014646
H       -0.10946397       3.14372644      -1.16660551      -0.01881336       0.03923938      -0.03417423
