12
Properties=species:S:1:pos:R:3:forces:R:3 Coordinates=T from=T ORCA-job=T run=T Energy:=T 164.9169644=T energy=-35273.10577441702 pbc="F F F"
C        1.18808196      -0.06654559      -0.03403336       0.05578143       0.03432239      -0.00424665
H        1.32725828       1.87405038       0.83426031      -0.03137029      -0.00357839      -0.01856721
Cl      -2.44864113       0.58985359      -0.02012892       0.03413180       0.02100802       0.01640974
Cl       3.01973945      -0.25722162      -0.28449482      -0.01026760      -0.02247881      -0.03767007
C        0.82292193       1.39599410      -0.00854114      -0.00506730       0.00832147      -0.02463901
H       -0.27019572       1.47545166       0.08950931      -0.03190112      -0.05226539       0.01595966
H        1.14030440       1.85541664      -0.94306357       0.01894817       0.01220692      -0.00942781
N        0.57268209      -0.80481924      -1.27613325      -0.00225815      -0.00078551      -0.01234385
O        0.56009150      -0.17208864      -2.30922241      -0.00344873       0.00240482       0.00158732
O        0.24604195      -1.96015922      -1.11514103       0.03291617       0.01152496      -0.00780709
C        0.87302230      -0.80171388       1.18046077      -0.01222403       0.01385307       0.02593992
N        0.74134546      -1.33252332       2.19364838      -0.03754193      -0.03700875       0.04693941
