15
Properties=species:S:1:pos:R:3:forces:R:3 Coordinates=T from=T ORCA-job=T run=T Energy:=T 32.6073625=T energy=-87549.90185017925 pbc="F F F"
C        1.18900779      -0.13543058       0.09022127       0.01582256      -0.04240969       0.13904400
H        2.10141847       1.74792182       0.35984607      -0.04196979       0.02696190      -0.05386690
Br      -2.45762122      -0.25984637       0.50594105      -0.10575741       0.05221502       0.01496123
F        2.54827258      -0.43423101      -0.09988367      -0.02913034       0.00693219      -0.00896249
C        1.08971709       1.39107486       0.15589498       0.04185859      -0.05513047      -0.09899362
H        0.74324931       1.78514802      -0.78922500       0.00695710       0.00803362      -0.10794214
N        0.65916275      -0.62990970      -1.40033796      -0.07528616      -0.00095016       0.07268686
O        0.56218289       0.17406500      -2.31118578       0.07169594      -0.00168478       0.04742220
O        0.47100374      -1.82694235      -1.48227111       0.06824261      -0.00098316      -0.07873924
N        0.67303270      -0.90454756       1.09765040      -0.02279511       0.02202870      -0.02642645
H       -0.32777527      -0.67938939       1.26251360       0.06832711       0.03265438      -0.02517279
H        0.72502163      -1.88378587       0.82658186       0.01106892       0.04022369       0.00211876
N        0.25531211       2.08764182       1.20970894       0.03536089      -0.01660713       0.10747033
O       -0.22425331       3.15120303       0.84650678      -0.04503301      -0.02487813       0.01206041
O        0.24090026       1.65171193       2.34309713       0.00954973      -0.04073690       0.00124376
