16
Properties=species:S:1:pos:R:3:forces:R:3 Coordinates=T from=T ORCA-job=T run=T Energy:=T 235.9587646=T energy=-28479.754137255288 pbc="F F F"
C        0.32693619      -0.11388125      -0.18981826       0.10218024       0.00968726       0.09803963
H        1.48274192       1.43867747      -1.02007606       0.02210777       0.10244026       0.06334793
Cl      -2.00501292      -0.39935559      -0.63235615      -0.21273438       0.05075657       0.06115316
F        2.33865283       0.21419999       2.70545254      -0.06765573      -0.00534302      -0.05845411
C        0.59927092       1.40651394      -0.37273073      -0.05429527       0.03513911      -0.08480024
N        0.59824810      -0.92116129      -1.49302859       0.04099813       0.16101996       0.15700765
O        0.89675696      -0.27191912      -2.48524053      -0.09569857      -0.08486652      -0.12500091
O        0.61813774      -2.13409842      -1.40807394       0.03409750      -0.08543747      -0.02851488
N        0.64289344      -0.68934089       0.91082328       0.11325082      -0.00386732      -0.06088680
H        1.65004897      -0.15906130       2.13113068      -0.12185999      -0.08714699      -0.06845650
H        0.57402584      -1.70402508       0.80828341       0.08793141       0.12409834      -0.02949737
N        0.89571142       2.13490982       0.85129556      -0.16412010       0.09378464      -0.00388824
H        1.59417367       1.64743657       1.39152560       0.23688735      -0.10434530       0.15343759
H        0.05645769       2.16630386       1.42018058      -0.01454103      -0.01317356       0.10566234
C       -0.43332048       2.19720828      -1.06974343      -0.11495495       0.00094243      -0.27897452
N       -1.14763167       2.95830898      -1.56341853       0.22127358      -0.19905112       0.08933242
