13
Properties=species:S:1:pos:R:3:forces:R:3 Coordinates=T from=T ORCA-job=T run=T Energy:=T 37.9466382=T energy=-14659.41873341407 pbc="F F F"
C        0.13335260       0.06740065       0.20318391       0.05562669      -0.05266584       0.09597028
H        1.82897539       1.32178965       0.01358201       0.01655757      -0.00757036       0.01907921
F       -1.26372522       0.13517847       0.16209399      -0.07943999      -0.00872302      -0.05607360
F        3.10236553      -0.39286394       1.61393285       0.00243491       0.01491539       0.01153286
C        0.74491854       1.41151120      -0.04104256      -0.00821173       0.01225358      -0.01149729
H        0.40895681       2.11164984       0.73263009      -0.00009571      -0.00084546       0.00561056
H        0.44404065       1.78527159      -1.01810343       0.00485372      -0.00463938      -0.06693759
N        0.21394637      -0.71015600      -1.68842798      -0.01236581      -0.00153286       0.01041172
O        0.10573753      -0.03886150      -2.72545129       0.02140572       0.02809801       0.01776615
O        0.34667185      -1.93529645      -1.72382491      -0.03366010       0.01708254      -0.03113603
N        0.67503023      -0.78787918       1.00082327       0.01687609      -0.06721936       0.04299586
H        2.16101647      -0.62932601       1.38910675       0.00812072       0.02656954      -0.03332627
H        0.11883289      -1.63347321       1.09016536       0.00378965       0.04573720       0.00435363
