16
Properties=species:S:1:pos:R:3:forces:R:3 Coordinates=T from=T ORCA-job=T run=T Energy:=T 71.3175041=T energy=-83055.07056982997 pbc="F F F"
C        0.44638922      -0.11189439      -0.04615583       0.07605835      -0.05103610      -0.07553612
H        1.60515823       1.62023066      -0.29276076      -0.11564336       0.01567307      -0.01016847
Br      -2.60134856       0.22009029      -0.36780008      -0.05669333      -0.01261181       0.07695220
F        3.31387636      -0.32479821       1.71703416      -0.11861348       0.07710087       0.07396790
C        0.54635654       1.38927667      -0.08929211      -0.01539573      -0.06038749       0.03256997
H       -0.05863221       1.75292371      -0.91688857       0.08316031      -0.00430980      -0.01070443
N        0.16638763      -0.82738424      -1.38046949       0.01194663      -0.06568054      -0.01757242
O        0.33729473      -0.17391309      -2.39624528      -0.03257133       0.10903837      -0.03363218
O       -0.02926078      -2.03360316      -1.34420059       0.07403530       0.04924805       0.08836758
N        0.88647975      -0.83438049       0.89573985      -0.07628609       0.02801596       0.06635192
H        2.36954137      -0.44415341       1.58982356       0.06488988      -0.02085911      -0.00305051
H        0.79601280      -1.83058963       0.69150052      -0.08414714       0.05890442      -0.12468953
C        0.10126265       2.03740045       1.22984653       0.01493135      -0.02720033      -0.00516515
H       -0.96592762       1.86271231       1.37741400       0.03810246      -0.10552579      -0.00342904
H        0.65610384       1.62129340       2.07412836       0.00232569       0.05288269       0.01862160
H        0.26039174       3.12120392       1.20893790       0.11472376      -0.04501226      -0.07225164
