16
Properties=species:S:1:pos:R:3:forces:R:3 Coordinates=T from=T ORCA-job=T run=T Energy:=T 146.7839672=T energy=-9536.449054614022 pbc="F F F"
C        0.79416151      -0.04837698      -0.10196412      -0.00985312      -0.07317482      -0.05345601
H        1.81204924       1.85992575      -0.41212447       0.02712699       0.04671791      -0.00123381
F       -1.81977943       0.15015713       0.56369182      -0.00956257       0.01518555      -0.00438214
H        1.40872255      -0.41034282       0.73374045      -0.04043046       0.02069410      -0.00776637
C        0.80318578       1.50223710      -0.15930411       0.01453470      -0.00455799      -0.02069932
H       -0.29732945      -0.28887854       0.11982680      -0.00422083      -0.02534448       0.04279300
C        1.26363480      -0.69704294      -1.31591175       0.01588469       0.06235936       0.03860599
N        1.63335149      -1.21468495      -2.28440688      -0.01350772       0.01297385       0.04815973
C        0.37382345       2.03183055       1.21696016       0.03280749      -0.02541987      -0.00198197
H       -0.58986586       1.55275429       1.44172762       0.04989382       0.02632057      -0.02236310
H        1.10952973       1.78463381       1.99420267      -0.02239952      -0.00302240       0.02013976
H        0.26255352       3.12475059       1.19145569      -0.00587689      -0.05566887       0.04821497
C       -0.20845621       1.96974831      -1.21210706      -0.00233795      -0.00602027      -0.03155834
H        0.06341180       1.61586151      -2.21219733      -0.02557344       0.01027172      -0.04430558
H       -1.17320642       1.53808142      -0.91686683       0.01468987       0.03009157      -0.01206838
H       -0.26684279       3.06606952      -1.24269384      -0.03421128      -0.03342419      -0.01158955
