15
Properties=species:S:1:pos:R:3:forces:R:3 Coordinates=T from=T ORCA-job=T run=T Energy:=T 82.2292668=T energy=-22478.09673029415 pbc="F F F"
C        0.36202272      -0.05037937      -0.24030196      -0.05522527       0.06683138      -0.04413836
H        1.55935728       1.60940700      -0.45091427       0.08438261       0.01118495      -0.00944312
Cl      -1.38367158      -0.59115536       0.17474311      -0.03946265       0.04833993       0.03558788
F        2.03882399      -0.22614766       1.69387213      -0.02096533       0.01963200      -0.00440771
C        0.49599307       1.47430305      -0.22866480       0.01656477       0.05435726      -0.02059356
H        1.07614038      -0.37248830       0.64742410       0.06626477      -0.10521453       0.06819413
C        0.68557459      -0.66757311      -1.50321859      -0.00797557       0.00383320      -0.04186120
N        0.97406838      -1.20375216      -2.48754695       0.05268189       0.01563433       0.01792357
C        0.26318794       2.03740835       1.17851432      -0.01084801       0.01625872       0.00853856
H       -0.77803223       1.90279542       1.49159656       0.00337276       0.02191096      -0.01312445
H        0.92524614       1.49281620       1.85910226       0.01005665      -0.02081532      -0.00280950
H        0.48644345       3.11289023       1.18427578       0.02291207      -0.03174745       0.05059868
N       -0.26257297       2.12916365      -1.30844881      -0.03810154      -0.04277925      -0.02744676
H       -0.10697395       3.13357851      -1.25254091       0.01312472      -0.02895970       0.02175763
H       -1.25255466       1.99177020      -1.12463353      -0.09585392      -0.02295498      -0.02660003
