13
Properties=species:S:1:pos:R:3:forces:R:3 Coordinates=T from=T ORCA-job=T run=T Energy:=T 76.9288846=T energy=-78494.75639608823 pbc="F F F"
C        0.90406632      -0.06804475      -0.00140751      -0.00796101       0.04872203       0.05136814
H        1.52985912       1.91507126      -0.54904722       0.02398278       0.03148837       0.01884517
Br      -2.67851474      -0.16773423       0.04897337      -0.00066821      -0.01198329       0.02253467
F        1.90731381      -0.33289492       0.95976792       0.02216566       0.02255902      -0.01037262
C        0.65143738       1.43447831      -0.10319190       0.01692110       0.01743202      -0.01485069
H       -0.01709693      -0.57352700       0.31249527      -0.02496181       0.00896034      -0.05806740
H       -0.19285106       1.55238758      -0.78712718      -0.00977880      -0.00340621      -0.03267623
C        1.38333610      -0.61962081      -1.27923361       0.00618240       0.03061623       0.02608479
N        1.79664084      -1.01165444      -2.28192001      -0.01407539      -0.03753367       0.01453405
C        0.29260006       2.06332388       1.24494764      -0.00502602      -0.03987355      -0.04706194
H       -0.63574006       1.62249794       1.61446101      -0.00472851       0.00124522       0.02763354
H        1.08619255       1.91605398       1.98239062      -0.00413881      -0.00794696       0.00136626
H        0.13164022       3.14066442       1.12630189       0.01016268      -0.04017468       0.00353173
