14
Properties=species:S:1:pos:R:3:forces:R:3 Coordinates=T from=T ORCA-job=T run=T Energy:=T 93.6834149=T energy=-90241.80655092372 pbc="F F F"
C        0.87181295       0.01441889      -0.09856211      -0.00387481       0.00094350      -0.00614750
H        1.73857591       1.92427407      -0.58962579      -0.00401611       0.01371591       0.01462293
Br      -2.80160775      -0.23896936       0.13825797       0.01333073       0.01591176      -0.00187763
Cl       2.12765525      -0.56503206       1.12896211       0.00407652      -0.01817639      -0.00146811
C        0.80298370       1.55919803      -0.13262846       0.00359495      -0.00148888      -0.00965286
H       -0.09783517      -0.38182326       0.23120359      -0.01225333       0.00070026       0.01861868
C        1.25590694      -0.53438576      -1.39031792       0.00737114      -0.02702536      -0.01826486
N        1.61103812      -0.97376751      -2.39541842      -0.00306451      -0.01064427      -0.02926285
N        0.61539999       2.06339148       1.23539396      -0.00937790      -0.00305123      -0.02569395
H        0.36081775       3.04362557       1.17877428      -0.01715720       0.01209542       0.03710337
H        1.47777640       1.98931690       1.76728893      -0.00299789       0.03867921       0.00869297
N       -0.27897035       1.87198042      -1.02893446       0.00299134       0.00043003      -0.00861327
H       -0.36253867       2.87045808      -1.18210974       0.00094522       0.00439583      -0.00367256
H       -1.16985045       1.48857126      -0.68911365       0.01691449      -0.01291290       0.01663484
