15
Properties=species:S:1:pos:R:3:forces:R:3 Coordinates=T from=T ORCA-job=T run=T Energy:=T 76.9882116=T energy=-14031.29173464721 pbc="F F F"
C        0.70618278      -0.08357368      -0.13914365      -0.00336491       0.00082280       0.00337108
H        1.66316073       1.84831974      -0.59292487      -0.00649615       0.00247682      -0.00059623
F       -1.71608206       0.21208523       0.66491136       0.00279711       0.00772088       0.02028911
H        1.21240008      -0.40935713       0.77650054      -0.01086264       0.01723180       0.00370182
C        0.73258175       1.44772252      -0.17130756       0.00345915      -0.00579578       0.01204541
H       -0.42442411      -0.28572223       0.05564146       0.00789954      -0.00999109      -0.00447798
C        1.33092413      -0.76288199      -1.25297491       0.01994817      -0.02050826      -0.03885643
N        1.85172932      -1.35177778      -2.10354227      -0.02775826       0.03172814       0.02469339
C        0.43967278       2.02581653       1.20758568       0.00009082       0.00584593      -0.00742607
H       -0.50235848       1.56309946       1.52585192       0.01541126      -0.00903478      -0.01746480
H        1.25347912       1.75972162       1.89216835      -0.01143255      -0.00119846      -0.01499428
H        0.35544042       3.11145530       1.16909811      -0.02135105       0.00451800       0.00350727
N       -0.31413216       1.96596661      -1.18267584       0.01245226      -0.03358730       0.02901865
O       -0.74150062       3.10244956      -1.02114247       0.01637076       0.00571644      -0.01144397
O       -0.56878609       1.26477043      -2.14493161       0.00456280       0.01984808      -0.01013290
