15
Properties=species:S:1:pos:R:3:forces:R:3 Coordinates=T from=T ORCA-job=T run=T Energy:=T 82.8601576=T energy=-22479.477542465134 pbc="F F F"
C        0.22796063      -0.05444837      -0.21718881       0.02514994      -0.00177492      -0.01149391
H        1.53564821       1.57524037      -0.41283909      -0.00569850       0.00292016       0.01390659
F       -1.12845525      -0.31439004       0.10971611       0.03542165      -0.00291528      -0.00404987
Cl       3.09780973      -0.07434815       1.73564431      -0.02628512      -0.01827426       0.01197933
C        0.46981034       1.45437990      -0.19799760      -0.01436091       0.01410003      -0.00645329
H        0.87410970      -0.51895322       0.53858753      -0.01143211      -0.02076487      -0.02507802
C        0.47072151      -0.66457754      -1.53104793       0.01068332       0.00501334      -0.03689512
N        0.65600929      -1.17098189      -2.54986990      -0.00162569      -0.02153348       0.02174434
C        0.18636048       1.99911045       1.20589532       0.01139362       0.02729858       0.03262136
H       -0.86212276       1.83427741       1.47554442       0.01139772       0.01066584       0.02899488
H        0.83868558       1.51552640       1.93593983       0.01686762      -0.02227065       0.02109203
H        0.38410053       3.07504588       1.23610157      -0.00394469       0.04224653      -0.02065515
N       -0.30111684       2.09103494      -1.27729568      -0.02869647       0.00318136      -0.03410649
H       -0.06799839       3.07854111      -1.31918577       0.01330226      -0.00672641       0.01770109
H       -1.28954386       2.03848758      -1.04575750      -0.02283472      -0.00820948      -0.01471895
