14
Properties=species:S:1:pos:R:3:forces:R:3 Coordinates=T from=T ORCA-job=T run=T Energy:=T 85.9606908=T energy=-32720.964402293896 pbc="F F F"
C        0.85087610       0.00705840      -0.09332188      -0.00817131      -0.01126075      -0.01493410
H        1.73019830       1.91172639      -0.58719419      -0.00798769       0.01407407       0.00984521
Cl      -2.66663421      -0.15959056       0.10078364       0.01049397       0.01322523      -0.00099322
Cl       2.09715825      -0.58255735       1.13970488      -0.00025601      -0.01580345      -0.00906121
C        0.79261320       1.55202053      -0.12968452       0.00068213      -0.00197499      -0.00982511
H       -0.12485281      -0.37772512       0.23214927      -0.00390834      -0.00705177       0.01608128
C        1.23569535      -0.54497374      -1.38397431       0.00905797      -0.02632829      -0.01138817
N        1.59232452      -0.98493473      -2.38840531      -0.00488125      -0.01076348      -0.02188345
N        0.61174983       2.05769841       1.23915430       0.00312397       0.01122357      -0.00886740
H        0.35136378       3.03657521       1.18360894      -0.01831054       0.00719704       0.02925149
H        1.47938353       1.98954909       1.76414420      -0.01786612       0.03948329       0.00041040
N       -0.28978030       1.86549965      -1.02446439       0.00872840       0.00290388      -0.00783695
H       -0.37625287       2.86355784      -1.17719986       0.00169581       0.00929618       0.00218776
H       -1.17954557       1.47357982      -0.68889902       0.02393960      -0.01063546       0.01873371
