16
Properties=species:S:1:pos:R:3:forces:R:3 Coordinates=T from=T ORCA-job=T run=T Energy:=T 28.0703523=T energy=-12236.51988166951 pbc="F F F"
C        0.33726332      -0.07055483      -0.18954548       0.00465073       0.00074518      -0.00013814
H        1.61927987       1.55787703      -0.40111670      -0.00321261       0.02865004      -0.01021657
F       -1.03403694      -0.36113251       0.08132947       0.01553550      -0.01156108      -0.02045892
F        2.01094212      -0.19761858       1.82358973      -0.00631705      -0.00513695       0.00590239
C        0.54173438       1.44994208      -0.22723812       0.00231317      -0.00196300      -0.00935136
H        1.01011782      -0.41921045       0.68105003      -0.00372161       0.00117175       0.00144235
C        0.67104346      -0.72866913      -1.44976310      -0.00435854      -0.01244754       0.02291421
N        0.96977772      -1.26599461      -2.43018484      -0.00531014       0.00836299       0.00595473
C        0.25706812       2.02004060       1.16969192       0.00964911      -0.01192424      -0.01213989
H       -0.80345556       1.91867174       1.42747052       0.00992280       0.01916900      -0.01490842
H        0.86743811       1.43510289       1.86880742       0.01042281       0.00236146       0.00205520
H        0.52347164       3.08403157       1.21365772      -0.01341251      -0.01261451       0.01464168
C       -0.24494410       2.14724993      -1.34266960      -0.00438711      -0.00089794       0.00621851
H        0.02823460       1.76509034      -2.33221836      -0.00293051       0.02241802       0.00074415
H       -1.32039627       1.99055133      -1.21203452      -0.00154730      -0.00910120       0.01203433
H       -0.06343844       3.22824823      -1.33436832       0.00164399      -0.00372060      -0.00886287
