14
Properties=species:S:1:pos:R:3:forces:R:3 Coordinates=T from=T ORCA-job=T run=T Energy:=T 86.7107988=T energy=-90241.69943373687 pbc="F F F"
C        0.86751876       0.01096771      -0.11628113      -0.02013005       0.00868957      -0.03761911
H        1.70896327       1.94460391      -0.58950229       0.04471183      -0.01831862      -0.01262998
Cl      -2.64459883      -0.16690804       0.15774040       0.00552838      -0.00110491      -0.00350024
Br       2.26138018      -0.64285954       1.19003414      -0.00289446       0.00886818      -0.01471803
C        0.78422790       1.55648253      -0.13341408       0.02056161      -0.00286008      -0.00215808
H       -0.08901057      -0.39574934       0.23855684       0.00905128      -0.00483582      -0.00151380
C        1.23278795      -0.52420511      -1.41679986      -0.00498078       0.01594833       0.03391708
N        1.56633483      -0.94104008      -2.43942177       0.00853158      -0.03252155      -0.01373152
N        0.58983095       2.05435763       1.23609512       0.00333131       0.01039948      -0.00296427
H        0.32554650       3.03242332       1.18192288      -0.04465234       0.00327227       0.01806516
H        1.45396637       1.99479457       1.76726884       0.01038517       0.00362377      -0.00487179
N       -0.30470710       1.85145280      -1.02857943      -0.00404593       0.01837145       0.03493387
H       -0.40354332       2.84886227      -1.18001638      -0.00332809       0.01496755      -0.00630960
H       -1.18467006       1.45304171      -0.67650476      -0.02144290      -0.00937692       0.00153341
