15
Properties=species:S:1:pos:R:3:forces:R:3 Coordinates=T from=T ORCA-job=T run=T Energy:=T 194.1022897=T energy=-26535.835544961177 pbc="F F F"
C        1.07459274      -0.05468763      -0.04394909      -6.50841389       0.63833941       0.74841951
H        1.73245229       2.00322446       0.17045361      -0.20830291      -0.14780711      -0.04441290
F       -1.43870721       0.23290841       0.11340534       0.40601947      -0.10356928      -0.02566043
Cl       2.68833682      -0.40684429      -0.01673482       4.19482497      -1.06209639      -0.10255754
C        0.77896153       1.48639707      -0.04923861       0.45653567       0.10306245      -0.03519192
H        0.53876189      -0.43402202       0.87941322       0.86144819       0.45581093      -0.93372670
C        0.29990671      -0.71252497      -1.15572192       0.95424318       0.12201443       0.22434550
N        0.05306049      -1.28849268      -2.13007729      -0.10468803      -0.03773389       0.10139160
N       -0.05109748       1.87336615       1.17683780       0.02839080      -0.02628511       0.00087323
O       -0.79796329       2.83312581       1.08339602       0.06246993       0.02419841       0.02899999
O        0.27149115       1.34458173       2.23579355      -0.09074770      -0.03345412       0.05839086
C        0.16389086       2.03960546      -1.31965184      -0.02127296      -0.02125780       0.01817961
H        0.76443299       1.73900949      -2.18372307      -0.00578936       0.01563016       0.01269427
H       -0.83748767       1.61121260      -1.38488431       0.02004631       0.07679891      -0.03370832
H        0.12444636       3.12854374      -1.27732582      -0.04665974       0.01002137      -0.01599377
