12
Properties=species:S:1:pos:R:3:forces:R:3 Coordinates=T from=T ORCA-job=T run=T Energy:=T 131.7775315=T energy=-88736.33162769245 pbc="F F F"
C        1.01199569      -0.05797527      -0.25426274      -0.03139356      -0.03829161       0.03109399
H        1.80118453       1.93494273      -0.55495444       0.04740899      -0.03143058       0.03941143
Br      -2.35071713       0.47797664       1.15673057      -0.00325869      -0.01990735       0.02012653
Cl       2.34957197      -0.58634104       0.90494084      -0.02005898       0.02221146      -0.00804520
C        0.86650604       1.46945498      -0.22801119      -0.00442028      -0.00112153      -0.00249870
H        0.08816547      -0.49261084       0.14765210       0.04135329       0.01084165      -0.04613889
H        0.67709963       1.73324983       0.82135847      -0.00197896       0.04997125      -0.03701130
C        1.32526675      -0.59689094      -1.57153771      -0.01311408       0.03481593       0.01955381
N        1.60749876      -1.03362332      -2.60077227       0.00705015      -0.02401697      -0.03629266
N       -0.20562143       1.82756309      -1.14931361      -0.02838022       0.06517447       0.04584844
H       -0.21927776       2.83797932      -1.26282124       0.00597795      -0.05819698      -0.01856397
H       -1.09037403       1.56676898      -0.69852963       0.01629776      -0.01014921      -0.01732375
