13
Properties=species:S:1:pos:R:3:forces:R:3 Coordinates=T from=T ORCA-job=T run=T Energy:=T 32.1752406=T energy=-30778.98201618371 pbc="F F F"
C        0.80676204      -0.06950762      -0.26600307       0.00792016      -0.02643731      -0.00914080
H        0.86759732       1.82728541       0.65785970      -0.02150769       0.03440793      -0.01042224
Cl      -1.02800510      -0.40783614       2.48814305       0.00865145      -0.02274110      -0.00201162
Cl       2.66343431      -0.15941209      -0.27794692       0.00087113      -0.02962009       0.01038807
C        0.34051558       1.38427402      -0.19013329      -0.00543836      -0.01107978      -0.01036524
H        0.47686655      -0.58349569       0.65037938      -0.01411729       0.02690214      -0.01769749
H       -0.70830918       1.34492717       0.11760313      -0.01518744      -0.05071897      -0.01281724
C        0.34737262      -0.75943524      -1.46420891       0.07267052       0.04809996       0.11869471
N       -0.00768122      -1.26288224      -2.43887864      -0.09232045      -0.09717673      -0.08295442
C        0.53424543       2.19582589      -1.46775857       0.01235464       0.04237029      -0.02671346
H        1.57940003       2.19088295      -1.78854209       0.03389603       0.07191570       0.00375694
H       -0.06249716       1.80398803      -2.29657030      -0.01856441      -0.03665653       0.02863714
H        0.22937503       3.23345956      -1.30944658       0.02641934       0.04772639       0.00894194
