14
Properties=species:S:1:pos:R:3:forces:R:3 Coordinates=T from=T ORCA-job=T run=T Energy:=T 191.6336368=T energy=-17167.622002933877 pbc="F F F"
C        1.08643839       0.04754810      -0.03148452      -0.01048511      -0.01570499       0.02618324
H        1.70082789       2.07353743       0.07191542       0.01262334      -0.00601919      -0.00949351
F       -1.21457859      -0.09645719      -0.14206305       0.00375180       0.02556154       0.02311336
F        2.49749785      -0.09141313       0.11138067      -0.01448422       0.01512397       0.00241507
C        0.74502854       1.54319230      -0.00211276       0.01219180      -0.00257975      -0.01800626
H        0.17617333       1.70676954       0.91615772       0.03569049       0.00973424      -0.03255056
C        0.72191098      -0.70281946      -1.23527140       0.01372519       0.01996679      -0.00990358
N        0.70787657      -1.29752093      -2.22482938       0.01883190      -0.00977799      -0.01419282
N        0.60417834      -0.71224143       1.22961949      -0.00701208      -0.03582669      -0.03334201
O        0.50732317      -0.06819363       2.26401226      -0.01607070       0.01667612       0.01585839
O        0.54522249      -1.92411397       1.15122382       0.00275342      -0.02334512       0.02949052
N        0.04470712       1.94347197      -1.22433488      -0.00578493      -0.00030253       0.02179573
H       -0.19873522       2.92726198      -1.14022580      -0.02945226      -0.00813182       0.01801246
H       -0.81860345       1.38886739      -1.16410930      -0.01639171       0.01264759      -0.01682491
