13
Properties=species:S:1:pos:R:3:forces:R:3 Coordinates=T from=T ORCA-job=T run=T Energy:=T 207.9719336=T energy=-18171.360548750934 pbc="F F F"
C        0.98503541       0.01667410       0.00212146       0.02192942       0.01980812      -0.03680941
H        0.70568142       1.33754513       1.64351770      -0.01919562      -0.00547690      -0.01234490
F       -0.90411982      -0.30885038       1.05115117       0.00052295       0.03011746       0.00360663
F        2.26411720       0.03982348      -0.64552288      -0.00550083      -0.00550338       0.00202498
C        0.76237329       1.42818706       0.56126773      -0.00995991      -0.00283790      -0.00877858
H        1.64059002       2.03046247       0.29946577       0.00302424      -0.02369083       0.02073216
C        0.03299201      -0.48878645      -0.98036100       0.00239824      -0.01271823      -0.00554295
N       -0.51476663      -0.82536998      -1.94026951       0.00560218      -0.01052303      -0.00463919
N        1.24474969      -1.01765897       1.11322991      -0.04334248       0.00484609       0.01892306
O        1.70729204      -0.59325519       2.16418060       0.01430283      -0.01680332       0.00520216
O        1.15331291      -2.18927873       0.80287839       0.04173749      -0.00057861       0.01219864
C       -0.42652607       2.12142603       0.07812430      -0.01538837       0.00939751       0.02564939
N       -1.28300652       2.79668043      -0.29569623       0.01560176       0.01217303      -0.00558082
