13
Properties=species:S:1:pos:R:3:forces:R:3 Coordinates=T from=T ORCA-job=T run=T Energy:=T 124.6639700=T energy=-37782.49307725373 pbc="F F F"
C        0.09849575      -0.09930329      -0.07390668       0.01157421      -0.01742636       0.02098648
H        1.66224941       1.32517864      -0.12198255       0.01511755       0.01942160      -0.01588623
Cl      -1.73318613      -0.24010239       0.01753865       0.00216837      -0.00439201      -0.00731617
Cl       3.59228663       0.41642183       0.18598532      -0.01611881       0.01528252       0.00954823
C        0.54304915       1.35837390      -0.10788769      -0.00196915      -0.00957638       0.01087688
H        0.23938946       1.82423672       0.83055025       0.00615581      -0.01455753       0.01702308
C        0.54541868      -0.90925877      -1.19644389      -0.00800058      -0.02270212      -0.04291381
N        0.80644193      -1.52756455      -2.13272977      -0.02327932       0.02702981       0.03407262
N        0.57816354      -0.76087595       1.27934413       0.00234168       0.01691855      -0.00031382
O        0.55017991      -0.04224991       2.25431440      -0.00364889       0.01011053       0.00186259
O        0.82798133      -1.94242987       1.23991437       0.00118249      -0.02036605      -0.01053421
C        0.00618721       2.10986170      -1.22828555       0.02533458      -0.00295723       0.02657817
N       -0.40569444       2.74971269      -2.09491752      -0.00811417      -0.00252502      -0.04427042
