13
Properties=species:S:1:pos:R:3:forces:R:3 Coordinates=T from=T ORCA-job=T run=T Energy:=T 70.6918732=T energy=-23917.809051091146 pbc="F F F"
C        0.49586024      -0.07153648      -0.02089890       0.42405903       0.08222791      -0.02564043
H        1.67346011       1.65921186       0.02340488      -0.07285672      -0.06612224       0.00953191
Cl      -1.69895798      -0.25537511       0.06095987      -0.11009915       0.08896609      -0.00063626
F        2.55485048      -0.23001431      -0.00145665      -0.03748652       0.08039946      -0.06523935
C        0.60101698       1.46975225      -0.00470966       0.01193406      -0.02841946      -0.01221817
H        0.15284557       1.80497077       0.94185978       0.00525226      -0.04970968      -0.05033660
C        0.69238558      -0.79025720      -1.26071857      -0.08464264       0.12138778       0.16383151
N        0.75904867      -1.35442188      -2.26368112       0.01726011      -0.08345971      -0.12902358
C        0.77583885      -0.74316975       1.22742545      -0.14980156      -0.04623989       0.13935325
N        0.86379414      -1.20819665       2.28210528       0.00652550      -0.01421470      -0.05368288
N        0.03560444       2.08335045      -1.19609903       0.02348176      -0.04500710       0.02356602
H        0.46240204       2.98820828      -1.35010578      -0.01595853       0.01450114       0.00772844
H       -0.96595899       2.20226222      -1.10515281      -0.02465189      -0.05959207       0.00486187
