14
Properties=species:S:1:pos:R:3:forces:R:3 Coordinates=T from=T ORCA-job=T run=T Energy:=T 50.6086697=T energy=-90808.41886439611 pbc="F F F"
C        0.89720026      -0.06311576      -0.05828118       0.02082771       0.03144365      -0.01729926
H        1.32721318       1.92160161       0.60289591      -0.00918105      -0.00488077      -0.00050254
Cl      -2.21247389      -0.20256796       0.64308983       0.01214697       0.01130289       0.00776756
Br       2.95621432      -0.14843994      -0.61609800       0.00283532       0.01276449       0.00080708
C        0.54652768       1.44069328       0.00775072       0.00446337      -0.00998349      -0.02400980
H       -0.39767608       1.49063059       0.55432134       0.01088930      -0.00911150      -0.01401715
C        0.26440551      -0.83162542      -1.12178513      -0.02545828      -0.01024812      -0.03544267
N       -0.06184480      -1.41049893      -2.06581748       0.00339093      -0.01106274       0.02982579
C        0.90520791      -0.71655169       1.24260262      -0.00862784      -0.01182493       0.01002871
N        1.06216684      -1.19228218       2.28167835      -0.00415771      -0.00524429       0.00734049
C        0.38955793       2.10314958      -1.35779990      -0.00122322       0.00391140       0.00732360
H        1.28290906       1.99749545      -1.97977378      -0.00456440       0.00057911       0.01858822
H       -0.46144888       1.67502045      -1.89117245       0.00391423       0.00592738      -0.00924209
H        0.19447505       3.17117064      -1.22372237       0.00255030      -0.00357269       0.00884912
