15
Properties=species:S:1:pos:R:3:forces:R:3 Coordinates=T from=T ORCA-job=T run=T Energy:=T 166.3765651=T energy=-15618.573983950606 pbc="F F F"
C        0.21487308      -0.05526636      -0.15748745       0.00515102      -0.00901932       0.00755038
H        1.45156112       1.61905849      -0.68827360      -0.03045462      -0.00486407       0.03385403
F       -1.13038708      -0.27313978      -0.60069318      -0.00466977      -0.02758348       0.02155363
F        2.33359256       0.07064926       0.83032517       0.00293959       0.02567363       0.00890381
C        0.48913821       1.49871253      -0.18422913      -0.01664906      -0.01434987      -0.00106482
C        1.06631196      -0.77250473      -1.12372604      -0.02187314       0.00694358       0.02200195
N        1.58351151      -1.35440652      -1.97461999       0.00492043       0.01635242      -0.03501194
C        0.27592793      -0.69356815       1.17270347      -0.00255992      -0.00688421       0.00272275
N        0.01512350      -1.28012579       2.13494996      -0.02410509      -0.01347572      -0.01754081
N        0.53135001       1.97608467       1.20103321       0.01068111       0.00952769      -0.04019466
H        0.77512956       2.96448205       1.18098777       0.02328475       0.00449285      -0.01951447
H        1.34621862       1.46943375       1.57587501      -0.01939520       0.00541747       0.00681437
N       -0.52296478       2.14995636      -1.00857346       0.02088683      -0.00144278      -0.01041641
H       -0.27861217       3.13307214      -1.08815835      -0.02017493       0.00866411       0.00132678
H       -1.42114340       2.09626517      -0.53531763       0.04184945       0.01215383       0.01246951
