13
Properties=species:S:1:pos:R:3:forces:R:3 Coordinates=T from=T ORCA-job=T run=T Energy:=T 89.1456602=T energy=-78736.07866982315 pbc="F F F"
C        0.49782853      -0.06533754      -0.02457508       1.44607378      -0.08690525       0.13776614
H        1.78832522       1.57997656       0.01666241      -0.23375859       0.39263128      -0.21136485
Br      -1.93137245      -0.40479970      -0.00754312      -0.35802318       0.43212513       0.10892980
H        2.78960699      -0.04486104       0.00751262      -0.62508327      -0.58169112      -0.03023531
C        0.71542377       1.44575670      -0.02930347      -0.44381365       0.70868927       0.22963395
H        0.28775665       1.87472340       0.88583910      -0.06957011      -0.30591574       0.28368153
C        0.65492211      -0.77937046      -1.24537254      -0.13803713      -0.46635318      -0.70326203
N        0.57058669      -1.34088788      -2.25736595       0.39133211       0.12421424       0.29526609
C        0.71580030      -0.72067901       1.22207257      -0.14691117      -0.23211341      -0.25990884
N        0.69678554      -1.24586432       2.24915346       0.24292076      -0.17308964       0.55773863
N        0.14921332       2.07270502      -1.21844898      -0.31633476       0.40738529       0.02201119
H        0.36866778       3.06502359      -1.14117697       0.09204189      -0.04822192      -0.21002600
H       -0.86815227       2.02632278      -1.12176579       0.16428179      -0.17572398      -0.21229165
