17
Properties=species:S:1:pos:R:3:forces:R:3 Coordinates=T from=T ORCA-job=T run=T Energy:=T 56.0755598=T energy=-91311.14245521149 pbc="F F F"
C       -0.03564363      -0.13515346      -0.07095809      -0.00564940      -0.00911345      -0.02594958
H        1.57881098       1.17576169      -0.33562571       0.02760876       0.02058693       0.00190500
Br      -2.08321560      -0.09292179       0.10546437      -0.00689916      -0.02544895       0.02353325
Cl       3.59472916       1.18588228       1.47142646       0.04530519      -0.00013737       0.03711997
C        0.51610087       1.31584165      -0.08769328      -0.01276553      -0.01058118      -0.01358672
C        0.21096836      -0.81153589      -1.34323011      -0.04845517       0.02053916       0.04607021
N        0.43933746      -1.40025708      -2.30907873       0.00494087       0.02727196      -0.01465978
C        0.52044219      -0.94579777       1.09644275      -0.02256653      -0.00116649      -0.01105547
H        1.61265872      -0.85369603       1.09455674       0.00454138      -0.03079627      -0.01191460
H        0.15952708      -0.52705239       2.03398479      -0.01577806       0.05573904      -0.01485976
H        0.22560888      -1.99283789       1.02303985       0.01273959      -0.02846234       0.00581380
N        0.39744029       1.90520575       1.24460556      -0.05152740       0.00666873       0.03807690
H        0.30013667       2.90860556       1.13416322       0.01629427       0.02546722      -0.00704619
H        1.29698360       1.76068303       1.71851289       0.00099927       0.01238475      -0.04747419
N       -0.09010785       2.08229491      -1.16222563       0.02025881      -0.01818753      -0.02994462
H        0.50557403       2.86925876      -1.39067604       0.02596013       0.04101237       0.00583474
H       -0.99784570       2.44201841      -0.88051395      -0.00584160      -0.08486751       0.02573640
