16
Properties=species:S:1:pos:R:3:forces:R:3 Coordinates=T from=T ORCA-job=T run=T Energy:=T 104.3207729=T energy=-9535.903713481033 pbc="F F F"
C        0.98376265      -0.12584531      -0.14230138       0.01788801      -0.02090523       0.07148829
H        1.40548647       1.85161850       0.56500663       0.00119247      -0.00372535       0.03889961
F       -1.68606824       0.24954058       1.05400801      -0.01303030       0.03334960      -0.00685567
H        2.00874163      -0.22831104      -0.53816270      -0.02269352       0.00075356      -0.00649631
C        0.61678610       1.37422016      -0.03389301       0.02098362      -0.02574760      -0.00829035
H       -0.33731448       1.36125766       0.52305699      -0.06682309       0.02938229       0.01422587
C        0.12775605      -0.82224280      -1.11443096      -0.01759888      -0.01322531      -0.03859748
N       -0.43232485      -1.39096172      -1.94996751       0.02402494      -0.00142268       0.03499470
C        0.86573223      -0.79419649       1.24572305       0.04939806      -0.01520653      -0.02295383
H        1.55568380      -0.30706621       1.94782880       0.00355808       0.00464726      -0.04078577
H       -0.18626266      -0.61865220       1.54496926       0.00622644      -0.00210761       0.00733413
H        1.11528869      -1.86133612       1.20488229      -0.01085020       0.00435716      -0.01390874
C        0.47272175       2.09581496      -1.37243453       0.02942532       0.00393425       0.00970567
H        1.34008606       1.95347565      -2.03281155       0.00746000      -0.00723615      -0.00830786
H       -0.41379643       1.73798492      -1.90223091       0.00630048       0.00611168      -0.03012709
H        0.35516635       3.17503211      -1.21978516      -0.02866718      -0.00019564      -0.00159182
