16
Properties=species:S:1:pos:R:3:forces:R:3 Coordinates=T from=T ORCA-job=T run=T Energy:=T 75.2834575=T energy=-12236.487561989743 pbc="F F F"
C        1.15593656      -0.06370027       0.08829073      -0.02964485      -0.00609067       0.00108686
H        1.13889007       1.87455211      -0.83281238       0.00064199      -0.00177340      -0.00242264
F       -1.98356457       0.45058647       0.75041407       0.00384771       0.00684873       0.00153236
F        2.53629653       0.06252331       0.46945716      -0.00702227       0.00712495      -0.00383249
C        0.54962756       1.33224396      -0.08332555       0.00174101      -0.00672401      -0.00551219
H       -0.48429720       1.16044227      -0.41515607       0.00599656       0.00459448       0.00934108
C        1.20519790      -0.75031981      -1.22446010       0.01102685       0.00362121       0.03361114
N        1.25582111      -1.28987093      -2.24322735       0.00843127       0.01639763       0.00720192
C        0.41193780      -0.90742379       1.11231485       0.00033486      -0.00487783      -0.00354625
H        0.67933511      -0.54147692       2.10796529       0.01067589      -0.00237188      -0.02123272
H       -0.67859594      -0.69807476       0.97067751       0.01352906      -0.00561217       0.02080320
H        0.68941094      -1.96383819       1.04247110      -0.00417030       0.00881802      -0.02734275
C        0.41122312       2.10003110       1.23642724      -0.00205630      -0.00441904      -0.01010956
H       -0.48292800       1.69236663       1.71559664       0.00701543       0.01475950       0.01473025
H        1.29718614       2.02705503       1.87764336      -0.00875803      -0.01071635      -0.01223753
H        0.23248870       3.16235771       1.03361186       0.00316931      -0.00523907      -0.01463326
