17
Properties=species:S:1:pos:R:3:forces:R:3 Coordinates=T from=T ORCA-job=T run=T Energy:=T 71.4020644=T energy=-21281.465666433727 pbc="F F F"
C        0.29543148      -0.04721139       0.08731931      -0.00558006       0.05223033      -0.15374115
H        1.71994418       1.50199568       0.20091990      -0.19232131      -0.10102238       0.09297547
Cl      -1.54853346      -0.31163090      -0.09762100       0.10219872       0.10212575       0.01168211
H        2.15155688      -0.33742061      -0.93866515       0.08469678      -0.22206159       0.05002431
C        0.61442898       1.46390266       0.13574941      -0.04420648      -0.03194387      -0.15928098
C        1.07550179      -0.72584338      -1.14948939      -0.29416628      -0.03433471      -0.43358830
N        0.69010092      -1.42344961      -2.08387486       0.16575654       0.23256631       0.45034024
N        0.64158210      -0.67674091       1.36807041       0.03608577       0.01076999      -0.08168547
H        1.66328602      -0.63399613       1.41970438      -0.02104544      -0.05863020      -0.02133069
H        0.41936636      -1.66465457       1.23472129       0.11802307       0.00400132       0.09648638
C        0.02706642       2.19384620       1.34471291       0.03318884      -0.09945461      -0.16058623
H       -1.06340245       2.20808206       1.22542589       0.06789147       0.14625306       0.18603765
H        0.25869438       1.65309988       2.26761305       0.02437406       0.18809166      -0.05858666
H        0.41372270       3.22741311       1.38145437      -0.14588904      -0.20814448       0.11705019
N        0.23559836       2.15818453      -1.11451330       0.20036365      -0.10341009      -0.05472578
H       -0.49023726       2.82324676      -0.89782746      -0.32973675       0.09277635      -0.04500922
H       -0.15064032       1.49638041      -1.78739436       0.19585446       0.02954322       0.16338011
