16
Properties=species:S:1:pos:R:3:forces:R:3 Coordinates=T from=T ORCA-job=T run=T Energy:=T 226.1014452=T energy=-24989.063201534158 pbc="F F F"
C        1.27103093       0.01361733      -0.03439220      -0.08477344      -0.00389438      -0.05733848
H        1.74686961       2.06181974      -0.11385915       0.03980345       0.02316945      -0.12169622
Cl      -2.52462930      -0.69270348       1.66946524       0.06891740       0.04339141      -0.02080453
F        2.65996017       0.08071751       0.37113389      -0.11005072       0.00967169       0.05046302
C        0.80259956       1.51256649      -0.07484601       0.01406179       0.02063721      -0.03213858
C        1.39126210      -0.58432378      -1.40360422       0.07519101      -0.04080735       0.11336146
N        1.49059147      -1.11007138      -2.42631670      -0.02450925       0.04233540       0.09136907
N        0.56757266      -0.75566979       0.88755630      -0.00078390      -0.01004071      -0.08328918
H        0.72305899      -1.74998022       0.80768047       0.02288100      -0.05424335      -0.07796036
H       -0.43964727      -0.57836339       1.06832797       0.05233390       0.01893226      -0.02132759
C        0.04574044       1.96626928       1.18364250      -0.01580972       0.02191441       0.05542339
H       -0.91140012       1.45229814       1.29198374      -0.03624852       0.06669737       0.02739004
H        0.64569137       1.76583086       2.07073142       0.03458699      -0.05737505       0.01198690
H       -0.12407337       3.04346402       1.12047650      -0.06404170       0.01916802       0.00141117
C        0.07147062       1.87596674      -1.29530509       0.07291901      -0.15700827       0.04688310
N       -0.46156933       2.19930477      -2.26473811      -0.06227649       0.07028601       0.00451046
