15
Properties=species:S:1:pos:R:3:forces:R:3 Coordinates=T from=T ORCA-job=T run=T Energy:=T 150.6770977=T energy=-29483.72719709847 pbc="F F F"
C       -0.04131442      -0.10916441      -0.00410369       0.02539751      -0.00028845      -0.00233214
H        1.65255107       1.23540253      -0.11658539      -0.06260460      -0.05310490      -0.02336444
F       -1.44391664      -0.00208949       0.07449211       0.02209904       0.01498912      -0.04230596
Cl       3.50907769       0.09874546       0.49526633       0.00253979       0.03830487       0.04720644
C        0.54470042       1.32814155      -0.02875291      -0.01990801       0.02776280      -0.02983605
C        0.20851058      -0.87984966      -1.25496434      -0.05692447      -0.01299811       0.04687812
N        0.35831460      -1.62882562      -2.11843824      -0.02423600       0.02726339      -0.00181894
N        0.45263193      -0.76001897       1.15426525       0.13280812       0.05492394      -0.06301363
H        1.46453865      -0.57031094       1.23477568       0.05656167      -0.04451411       0.05731397
H        0.33912330      -1.76190213       1.06712949      -0.06605037      -0.11360395       0.05499252
C        0.20784175       2.06992086       1.17946131      -0.00002465      -0.01282266       0.00053230
N       -0.00712092       2.68590208       2.12829573      -0.01827610      -0.03442297      -0.00713723
N        0.03365837       2.08317069      -1.25287742       0.03630553       0.07098665      -0.02882641
O       -0.69005845       3.04699826      -1.07786716      -0.00616639       0.05250809      -0.02182554
O        0.41569830       1.66254391      -2.33072493      -0.01201090      -0.01482300       0.00310885
