16
Properties=species:S:1:pos:R:3:forces:R:3 Coordinates=T from=T ORCA-job=T run=T Energy:=T 135.2468606=T energy=-18674.309912448687 pbc="F F F"
C        1.17808832       0.11293518      -0.16339450       0.04675127      -0.03685108      -0.08825585
H        1.49924471       2.08349304       0.49107033      -0.03910654       0.09104541      -0.03754289
F       -1.04959929      -0.56374161       1.95926098       0.05171468       0.03647810      -0.02407536
F        2.44998865       0.30903931      -0.79226154       0.01079184      -0.04202950       0.06177979
C        0.64249961       1.55126210       0.07547490       0.10486943      -0.09153996      -0.03785442
C        0.45050547      -0.68859331      -1.19145342      -0.10831644       0.04444880       0.00293134
N       -0.02601691      -1.39973766      -1.96429752      -0.02265256      -0.05881345       0.06486926
N        1.35191220      -0.55043231       1.06938426      -0.04790543       0.03334379      -0.02629833
H        1.66195986      -1.50256825       0.88133611      -0.07133447       0.08468143       0.06680445
H        0.39489773      -0.60102168       1.57727972       0.11542528      -0.08584694      -0.04349963
N       -0.56408266       1.67614607       0.76850373       0.07308947       0.19109616       0.24632795
H       -0.49730572       2.39459029       1.49333273      -0.05952181      -0.37585715      -0.36193153
H       -0.91599526       0.76952170       1.20110361      -0.06697573       0.09211728      -0.00460061
N        0.55599042       2.23118816      -1.38300099      -0.04481651       0.03065131       0.04256115
O        1.43788015       3.03486987      -1.66657201      -0.06466884       0.01099857       0.04574672
O       -0.38478689       1.94083632      -2.09985937       0.09587316       0.07163066       0.09000595
