18
Properties=species:S:1:pos:R:3:forces:R:3 Coordinates=T from=T ORCA-job=T run=T Energy:=T 22.2344499=T energy=-20602.96173351118 pbc="F F F"
C        0.78503462       0.03333180      -0.01808981       0.01963361       0.01488809       0.00693464
H        1.71584598       1.86861244      -0.56972264       0.02257481       0.00521348      -0.00877196
Cl      -2.75599757      -0.77327469      -0.13999719      -0.00958240       0.01361800      -0.00087316
F        1.84813028      -0.26387988       0.89796033      -0.02371558       0.01268414      -0.01510283
C        0.73754554       1.55724735      -0.17176011       0.01433192      -0.00195167      -0.00697763
H       -0.14092953      -0.33269730       0.43582828       0.02264608       0.00795059      -0.01280987
C        1.07750758      -0.74272201      -1.28619192       0.00116664       0.00082614       0.01931739
H        0.23380721      -0.68600136      -1.97618626       0.00358756       0.00634286       0.02226206
H        1.98712154      -0.36977908      -1.77301411      -0.02185807      -0.01011298      -0.02722603
H        1.22300072      -1.79573754      -1.03413621       0.01714367      -0.01146428      -0.01209943
C        0.54746524       2.21951112       1.20007236      -0.01743737      -0.00472823      -0.00965329
H       -0.40939404       1.91807419       1.63571750      -0.01950243      -0.00257789       0.01145292
H        1.34410094       1.92431111       1.88674279      -0.02424967       0.02006903       0.01013374
H        0.54896548       3.31236229       1.11571158       0.01875081      -0.00437029      -0.01084674
C       -0.36388280       1.98665603      -1.15405401       0.00298676      -0.02791845       0.00992217
H       -0.16013083       1.63288467      -2.16903300       0.00685036       0.02336952      -0.00341181
H       -1.32941233       1.56799396      -0.85504294      -0.02265520       0.00591326      -0.00698730
H       -0.44069815       3.08065224      -1.19615148       0.00824461      -0.03817486       0.03013573
