14
Properties=species:S:1:pos:R:3:forces:R:3 Coordinates=T from=T ORCA-job=T run=T Energy:=T 15.4882209=T energy=-87296.0480974613 pbc="F F F"
C        1.04171242       0.02326084      -0.14069640      -0.05923225       0.11690092      -0.04267494
H        1.85780341       1.94437017      -0.72550614       0.10527355      -0.02558592       0.05733115
Cl      -2.43782020       0.04888373       0.55461248      -0.02083652       0.02069026       0.03967520
Br       2.84127135      -0.40973705       0.72665195      -0.11437883      -0.03311554      -0.00407578
C        0.95160756       1.54743755      -0.25652248       0.01678434       0.10775495      -0.00398305
H        0.30310575      -0.32947407       0.58209766       0.12291634      -0.07093480      -0.08718857
H        0.88745589       1.95253831       0.76774223       0.05550217       0.04143624      -0.08390761
C        0.91138738      -0.69978725      -1.46393437       0.15104600      -0.01340996      -0.06005796
H       -0.06494423      -0.41964616      -1.87897717       0.19706022      -0.19282627       0.04310730
H        1.69316441      -0.38347071      -2.16835263      -0.12179407      -0.02602066       0.06254048
H        0.97377794      -1.78394929      -1.33564404      -0.08306014       0.04752979      -0.00855485
N       -0.18960575       1.88287405      -1.11273475      -0.07549293      -0.03665236       0.07866648
H       -0.32178016       2.88902473      -1.13902491       0.06801372       0.06019341       0.08998652
H       -1.02014788       1.48605951      -0.66401392      -0.24590770       0.00746662      -0.07023629
