15
Properties=species:S:1:pos:R:3:forces:R:3 Coordinates=T from=T ORCA-job=T run=T Energy:=T 113.0582335=T energy=-77296.32592828917 pbc="F F F"
C        0.10668385      -0.09988230      -0.21765543      -0.02363161      -0.02604467      -0.03898078
H        1.66602239       1.27961499      -0.25160783       0.05363121      -0.03723127      -0.01862945
Br      -1.89850948      -0.26511711      -0.08210899      -0.00958341      -0.02708338       0.04546811
H        2.65484770       0.71117486       1.68625847      -0.03150852       0.02237458      -0.04708175
C        0.56357396       1.36226786      -0.11074070      -0.01450268      -0.03540966       0.00942056
H        0.47413051      -0.59289663       0.68116438      -0.01623220       0.00318159      -0.02152869
C        0.57229173      -0.80152676      -1.48179290       0.01463271       0.00014629       0.00133803
H        0.18971125      -1.82266494      -1.54147705      -0.00997514       0.02803229       0.03011080
H        0.25465820      -0.25936855      -2.37732347       0.00852402      -0.04365440       0.00804233
H        1.66624258      -0.85032820      -1.46578305       0.01985925       0.03562058      -0.02020573
N        0.31782680       1.88631832       1.22798005      -0.08192546       0.01034925       0.07600063
H        0.44607628       2.89593451       1.20075777       0.01774896       0.03416685       0.02721467
H        1.16284339       1.50897768       1.74157840       0.02975881      -0.00415967      -0.00057838
C        0.01115029       2.20706181      -1.16759343       0.01982576      -0.00622722      -0.01025951
N       -0.39299742       2.87755804      -2.01786766       0.01850593       0.04313444      -0.02695845
