15
Properties=species:S:1:pos:R:3:forces:R:3 Coordinates=T from=T ORCA-job=T run=T Energy:=T 59.7802567=T energy=-89805.60565809355 pbc="F F F"
C        0.19833489      -0.11132301      -0.16499523       0.02211814      -0.03060247      -0.00966882
H        1.49472294       1.49335757      -0.46560114      -0.02246730       0.00397550       0.00436493
Br      -1.72372922      -0.56947958       0.21942687      -0.00273399       0.01731116       0.00714249
Cl       3.27667174       0.48164868       1.33582805       0.00079424       0.01339767       0.00702604
C        0.44233805       1.40632649      -0.14278039      -0.00913582      -0.03150671      -0.02023005
H        0.74379682      -0.52424872       0.68013129       0.00467538       0.00328535       0.01472775
C        0.63027630      -0.77775315      -1.45810909       0.00001883       0.00194654      -0.01637476
H        0.11263134      -0.35952026      -2.32573690      -0.00739363      -0.00754168       0.00208617
H        1.70844220      -0.62706667      -1.57659753      -0.01208214      -0.00559019       0.00390914
H        0.43916747      -1.85212333      -1.42638987       0.00431460       0.02308074       0.00611208
N        0.26502973       1.95387618       1.20704371       0.01665977       0.01107241      -0.02828896
H        0.40544761       2.96037801       1.16043555      -0.01724095       0.00168971       0.00953033
H        1.07346534       1.59499892       1.72679578      -0.00589855      -0.00817023      -0.00535212
C       -0.37938388       2.12766642      -1.12667515       0.01027138      -0.00441971       0.01856614
N       -0.97954233       2.71279767      -1.91987726       0.01308139       0.01189698       0.01718195
