13
Properties=species:S:1:pos:R:3:forces:R:3 Coordinates=T from=T ORCA-job=T run=T Energy:=T 43.1134672=T energy=-20973.304586171573 pbc="F F F"
C        0.45506890       0.00806544      -0.09785716      -0.04027679      -0.05577380      -0.02202901
H        2.32937877       1.27372553      -0.22615974      -0.18335495      -0.01785848       0.03544273
Cl      -2.06846527      -1.12753681       0.62494692       0.07695965      -0.05796605       0.03826153
F        3.26746421       1.22536078      -0.20167819       0.26421210      -0.00141686      -0.02109628
C        0.33971582       1.36283950      -0.09500661      -0.07236191      -0.07516841       0.05592113
H        0.63241361      -0.47869151       0.85337010       0.03817645       0.10534905      -0.00063056
H        0.30829855       1.85797302       0.87265752      -0.09934326       0.15942806      -0.15618253
C        0.58332828      -0.85871013      -1.30681222      -0.06289641      -0.00053405      -0.04800137
H       -0.05128736      -0.51598284      -2.12346218      -0.06470586       0.03506209      -0.03400935
H        1.62362563      -0.84230693      -1.66672022      -0.02472402      -0.05220513       0.09370776
H        0.29294963      -1.87478864      -1.04602306       0.03739304      -0.02152470      -0.10983943
C       -0.02197354       2.13483141      -1.23732450       0.01732274       0.14136871       0.02017789
N       -0.31757896       2.80075388      -2.14095812       0.11313415      -0.14994061       0.14622339
