17
Properties=species:S:1:pos:R:3:forces:R:3 Coordinates=T from=T ORCA-job=T run=T Energy:=T 37.5991385=T energy=-30844.56208574059 pbc="F F F"
C        0.18197695      -0.08906023      -0.15620109       0.00183140       0.01211815      -0.02246569
H        1.51936519       1.45497775      -0.53285550      -0.00905579       0.00182026       0.01805329
Cl      -1.63464101      -0.44377268       0.09793611      -0.02086079      -0.02315701       0.01479219
Cl       3.33766823       0.32430959       1.50119678      -0.00774242      -0.00021515       0.00588580
C        0.47033947       1.41757898      -0.19603457      -0.00789357      -0.00571657      -0.02257574
H        0.65095893      -0.49596702       0.73738713       0.02010496      -0.00186689      -0.03148857
C        0.64674677      -0.84986872      -1.38553593       0.00129501       0.01235005       0.00301266
H        0.13722753      -0.50804216      -2.29130488       0.00700745      -0.02716019      -0.00774237
H        1.72338552      -0.69639558      -1.50129557       0.00603798      -0.01301985       0.02367460
H        0.46816214      -1.92136176      -1.27036831      -0.01801808       0.01903265      -0.02089983
N        0.34459141       1.96593875       1.15959144       0.01847238      -0.00345308      -0.04347645
H        0.58567936       2.95399353       1.11590857      -0.00391944       0.00728883       0.01588812
H        1.10516369       1.53773892       1.69602481       0.00485865       0.02683447       0.03307899
C       -0.38805471       2.21478352      -1.17935478      -0.00366870       0.00113715       0.01450416
H       -0.28739315       1.84705253      -2.20569004      -0.00279398       0.00171366       0.02552509
H       -1.44234078       2.17843789      -0.89805072      -0.00508256      -0.00080459       0.02126328
H       -0.07498528       3.26510355      -1.17525938       0.01982998      -0.00478315      -0.02394219
