14
Properties=species:S:1:pos:R:3:forces:R:3 Coordinates=T from=T ORCA-job=T run=T Energy:=T 125.5152269=T energy=-148329.59332444207 pbc="F F F"
C        0.89873471      -0.03610919      -0.06046814      -0.00921655       0.00499446      -0.00985160
H        1.68551611       1.93306950      -0.43779754      -0.03213250      -0.01673627      -0.02823223
Br      -2.34721120      -0.73205743       0.46887104      -0.00537180      -0.02061729      -0.00506305
Br       2.67513362      -0.34613579       0.86139502       0.00529750      -0.02231063      -0.00351085
C        0.71977971       1.50778017      -0.13208093      -0.01531401       0.00175406       0.00284091
H        0.14117910      -0.47575224       0.59065999       0.01470842       0.02045349       0.00754248
C        0.88776845      -0.70556647      -1.41920937       0.01078693      -0.00366266      -0.00813310
H       -0.14543662      -0.69839087      -1.77710943       0.01666269       0.00025465      -0.01039771
H        1.53610278      -0.20546330      -2.14503117       0.02333460       0.00583588       0.01222766
H        1.20077599      -1.74628373      -1.33044709      -0.01739351      -0.00320288       0.02969041
C        0.40122808       2.12475405       1.16529734      -0.01182291       0.01282904      -0.02477385
N        0.21127256       2.67491497       2.15877562       0.02165535      -0.01059032       0.01131871
C       -0.23745783       1.94827575      -1.16272253       0.00695479       0.04334773       0.02307818
N       -0.86429724       2.38061710      -2.02733798       0.00207291      -0.01122973      -0.00211362
