14
Properties=species:S:1:pos:R:3:forces:R:3 Coordinates=T from=T ORCA-job=T run=T Energy:=T 24.4496723=T energy=-144816.8233997169 pbc="F F F"
C        0.27933257      -0.05614589      -0.09568504       0.02419007       0.02821726       0.00240914
H        1.59483354       1.54041666      -0.31305212       0.00884042      -0.01332000       0.00631609
Br      -1.68310231      -0.38537411       0.47171544       0.00590077      -0.02628134      -0.01817373
Br       3.92445646       0.00968215       0.46434100      -0.00554179       0.00723988      -0.00262798
C        0.51683235       1.44085854      -0.13799118       0.00172185       0.02275082      -0.01121455
H        0.83806537      -0.48324858       0.73280729      -0.00711097       0.00638982       0.01845533
H        0.32092542       1.86094380       0.85923380      -0.00510166      -0.01036938       0.00731435
C        0.56556582      -0.79453126      -1.38204204      -0.00439710      -0.00367729       0.00386145
H        0.00789128      -0.38095462      -2.22231171      -0.00492448       0.03942110       0.00490318
H        1.64043939      -0.67800836      -1.56152423       0.00312798      -0.01839991      -0.01235808
H        0.35204545      -1.86046525      -1.28797468      -0.01076427      -0.02479506       0.01232126
N       -0.22103186       2.10721558      -1.21887221      -0.01314400      -0.00153628      -0.02152824
H        0.08786728       3.07142468      -1.28641894       0.02395598       0.00015056      -0.00275146
H       -1.20988182       2.12974509      -0.98523542      -0.01230569      -0.01175131       0.01585976
