15
Properties=species:S:1:pos:R:3:forces:R:3 Coordinates=T from=T ORCA-job=T run=T Energy:=T 8.5692152=T energy=-29338.935520397165 pbc="F F F"
C        0.24127213      -0.11184994      -0.08796125      -0.01468716       0.00939462       0.03120671
H        1.35853469       1.61603669      -0.36938435      -0.02703668       0.00301370      -0.03069601
Cl      -1.50142899      -0.67988947       0.37654101      -0.00264692       0.02929714      -0.01893214
Cl       3.62822579       0.29725426       0.63779685       0.00024491      -0.00700506      -0.02276505
C        0.31959532       1.40552273      -0.08819396       0.00204770      -0.00398706       0.01488157
H        0.86731706      -0.51505481       0.70472304      -0.00549441       0.00295343       0.02168545
H       -0.34205224       1.81267249      -0.86587901       0.01270356      -0.02480493       0.03224815
C        0.60388914      -0.74584733      -1.41466903       0.00512430      -0.00763052       0.02033191
H       -0.03035072      -0.37495422      -2.22665861       0.03144093       0.02280496      -0.00260501
H        1.65193724      -0.50524732      -1.61353517       0.00579210       0.01549869      -0.01556689
H        0.51042667      -1.83228708      -1.37060741      -0.00777475      -0.03321387      -0.00144988
C        0.05691675       2.07065256       1.26337924       0.00460209      -0.00346389      -0.03368712
H       -0.95654159       1.87626451       1.62945015       0.03860716       0.00122448      -0.00450338
H        0.77922039       1.70929973       2.00138987      -0.03345113       0.01427248      -0.02470390
H        0.18699379       3.15518596       1.17682141      -0.01503137      -0.01346698       0.03801227
