17
Properties=species:S:1:pos:R:3:forces:R:3 Coordinates=T from=T ORCA-job=T run=T Energy:=T 34.6304554=T energy=-145886.10257602867 pbc="F F F"
C        0.24791625      -0.06935344      -0.13383578       0.02799391       0.02010967      -0.02206543
H        1.44140062       1.58450753      -0.37164536       0.02600655       0.00979443      -0.02274713
Br      -1.68853402      -0.61390330       0.32819532      -0.03359083      -0.00484093      -0.02190966
Br       3.69648591      -0.10786302       0.93363412      -0.01588563       0.03485087       0.00427068
C        0.37459800       1.45286872      -0.15140476       0.02407491      -0.01155809      -0.02234975
H        0.81827238      -0.46838169       0.70256213      -0.02206226       0.00540178      -0.00988118
C        0.64337381      -0.75353683      -1.42556625      -0.01071533       0.00427455       0.01716116
H        0.07711945      -0.37463981      -2.27742579       0.00453131       0.03325710       0.03028996
H        1.70946905      -0.54704212      -1.57215376      -0.01830694      -0.04013326       0.00093186
H        0.51819413      -1.83571259      -1.35296577       0.01227627       0.00460803       0.01234997
C        0.12417725       2.09906653       1.21845681      -0.01346147      -0.01529315      -0.04501284
H       -0.91646855       1.97779603       1.53415323      -0.00512466      -0.02313292       0.00856681
H        0.78270984       1.65650120       1.97225264      -0.01621715       0.03699342      -0.02734405
H        0.33867148       3.17326470       1.16981434       0.03027286      -0.02098724       0.00134668
N       -0.38641233       2.03664333      -1.27155919      -0.00665084      -0.00758599       0.03706997
H       -0.17573959       3.02801704      -1.34063640       0.03121944      -0.00781297       0.03171628
H       -1.38142434       1.96448898      -1.07303103      -0.01736610      -0.01999000       0.03282107
