15
Properties=species:S:1:pos:R:3:forces:R:3 Coordinates=T from=T ORCA-job=T run=T Energy:=T 13.3972530=T energy=-9726.876314321244 pbc="F F F"
C        0.98076634       0.01840055      -0.04410085       0.00321495       0.02224905       0.00650922
H        1.98632366       1.74214941      -0.84369549      -0.00613351      -0.01290838       0.02882351
F       -1.79100319      -0.21956857      -0.29697993      -0.00398176       0.01021038      -0.03269405
F        2.17373277      -0.33230007       0.68622722       0.01581669       0.00190475       0.00359635
C        1.05347392       1.51942611      -0.30179594      -0.02633388       0.02640891      -0.00719498
H        0.10590175      -0.20687374       0.57003471       0.01369459       0.00092280       0.01475682
H        1.14137875       2.00915299       0.67723271       0.01641497      -0.00629064      -0.00266294
C        0.86604950      -0.84418683      -1.28185498      -0.00108911       0.00696780       0.00498448
H       -0.20053369      -0.80677220      -1.53558415       0.00382070       0.00825670       0.01251091
H        1.51514717      -0.50766059      -2.10221748      -0.01168445      -0.02121622      -0.00754755
H        1.12747887      -1.87730117      -1.02600315      -0.00786537       0.00043775      -0.02579675
C       -0.18215774       2.05628008      -1.04654701      -0.02916329       0.00459606      -0.01574024
H       -0.07200166       1.93485504      -2.13161695       0.01317731      -0.01599288       0.01767975
H       -1.06367710       1.46019944      -0.74217456       0.01702990      -0.01342851       0.01860832
H       -0.32639408       3.12800028      -0.85161368       0.00607791      -0.01975918      -0.00878746
