15
Properties=species:S:1:pos:R:3:forces:R:3 Coordinates=T from=T ORCA-job=T run=T Energy:=T 224.0680466=T energy=-14028.37374294875 pbc="F F F"
C        0.11605279      -0.08628113      -0.24050841       0.01474061      -0.00568969      -0.00212676
H        1.51162066       1.50722823      -0.91136160      -0.03423165       0.00329213      -0.04116886
F       -1.24942537      -0.04844664      -0.68243963       0.00277342      -0.00125237       0.00762686
H        2.22590232       0.32799469       0.80520641       0.01262284      -0.00691077      -0.01355173
C        0.68732456       1.35159661      -0.22867405       0.05515973      -0.03752696       0.00743637
H        0.06601901      -0.44507964       0.78087145       0.02678444       0.00101571       0.00820320
C        0.84139083      -1.06683158      -1.17022013      -0.02015478       0.02699426       0.03023913
H        0.20929490      -1.25692865      -2.04542411       0.04740019       0.04711741       0.02408742
H        1.80618913      -0.67730815      -1.49197767      -0.03017762      -0.05080799       0.02769712
H        1.02245343      -2.01601528      -0.65800391      -0.01471261       0.03691383      -0.06150194
C        0.95225763       1.93427049       1.07058442      -0.07167999      -0.01563495      -0.04606835
N        0.92751770       2.63380046       2.00180449       0.00661563       0.03859227       0.07436061
N       -0.47370421       2.31276253      -1.01921856       0.04543865       0.01240382       0.01235731
O       -1.39527331       2.79970841      -0.39517571      -0.00179951      -0.00231231      -0.01908727
O       -0.24695539       2.51327023      -2.20895951      -0.01150320      -0.02892862      -0.01254038
