13
Properties=species:S:1:pos:R:3:forces:R:3 Coordinates=T from=T ORCA-job=T run=T Energy:=T 37.2571110=T energy=-20972.80995228747 pbc="F F F"
C        0.03683308      -0.04223323      -0.10034880       0.00461819      -0.02771736       0.00935274
H        1.82628190       0.99134417       0.15128964       0.05246478      -0.02824105       0.00275862
Cl      -1.87765400      -0.01642279      -0.24123988      -0.00044282       0.02527385      -0.02311309
F        3.00693710       0.24706122       0.05671999      -0.11382129       0.06150248      -0.04107971
C        0.64554993       1.31981118       0.08171262       0.06684655      -0.03374153      -0.00824765
H        0.17881915      -0.63733825       0.79931188      -0.00951050       0.00831565      -0.00523385
H        0.53651806       1.93236427      -0.81897149      -0.01185756       0.01112871       0.00354385
C        0.60007910      -0.75051664      -1.31441844       0.00369526      -0.00655309       0.00318335
H        0.22965054      -1.77547134      -1.39294590       0.01260088      -0.00374141       0.00112877
H        0.34696857      -0.21476344      -2.23504927      -0.00830404      -0.00218817       0.01033874
H        1.68722782      -0.72642753      -1.16499427       0.01249634      -0.00991253       0.01225929
C        0.22940324       2.05713866       1.24665608      -0.00913983       0.01958233       0.04228787
N       -0.05540567       2.66234021       2.19270748       0.00248168      -0.01036104      -0.01791221
