14
Properties=species:S:1:pos:R:3:forces:R:3 Coordinates=T from=T ORCA-job=T run=T Energy:=T 24.1071822=T energy=-24027.93005611318 pbc="F F F"
C        0.84210397       0.01808833       0.01706952       0.01327552       0.01473845       0.02682971
H        0.77689796       2.06128825      -0.71396333       0.02253545      -0.02836779       0.01395531
F       -2.11880885       0.77946711      -0.86589710       0.00817782       0.00117871      -0.01262442
Cl       3.38552340      -0.48294837       0.50121781      -0.01558901      -0.02975988      -0.01118870
C        0.60128401       1.35662939       0.08815683       0.01460091       0.00839931       0.02941777
H        0.70564615      -0.54806935       0.92884302       0.03599844      -0.00315855      -0.03430234
H       -1.28342576       0.94276534      -0.45250549      -0.00821541      -0.00076856       0.00746513
C        0.87046552      -0.72089164      -1.28969439      -0.02886090       0.01673890       0.01719968
H       -0.15247656      -0.80746577      -1.67770016      -0.03237103      -0.01008807       0.01105983
H        1.47093098      -0.19618035      -2.03582137       0.00412704      -0.00094030       0.03995695
H        1.28853050      -1.71619050      -1.15364543       0.02781151       0.02992631      -0.02809305
N        0.46115824       2.01575323       1.35990180      -0.11805766       0.05498155      -0.03307187
O        0.51612476       3.25288228       1.35202899       0.02047184      -0.01870061      -0.01812494
O        0.25350181       1.35067067       2.37603836       0.03573574      -0.02488244      -0.01102961
