14
Properties=species:S:1:pos:R:3:forces:R:3 Coordinates=T from=T ORCA-job=T run=T Energy:=T 13.8423355=T energy=-24027.931479087274 pbc="F F F"
C        0.29915792      -0.02834479      -0.00432324      -0.06020187       0.04458106      -0.01306440
H        2.27880085       1.21489366      -0.17295960      -0.02826986      -0.00420424       0.02126401
Cl      -2.14025580      -0.98138940       0.05999688      -0.02480586      -0.02807710      -0.00286936
F        3.18641580       1.14540793      -0.42873150       0.03628741       0.01579616      -0.02247452
C        0.28061050       1.33385184       0.04288671       0.02911753       0.00337799       0.05983964
H        0.35958513      -0.54603924       0.94188722       0.04707245      -0.01110040       0.01199113
H        0.10955043       1.98372188      -0.80445857       0.01060179      -0.02425235      -0.01150305
C        0.64287125      -0.78373018      -1.25427454      -0.02277629       0.00155695      -0.00002593
H        0.13671710      -0.36455810      -2.12605345       0.02112296       0.02251532      -0.00192837
H        1.72620880      -0.73414832      -1.42461118      -0.00663384       0.02326936       0.01075447
H        0.34049408      -1.82354505      -1.16098461      -0.01210520      -0.02127227      -0.01437556
N        0.10387718       2.02269694       1.29395922       0.03634458      -0.00739629       0.02703646
O       -0.16486162       3.22953428       1.23868331      -0.00240629       0.02071861      -0.08890361
O        0.25922605       1.41153481       2.35273000      -0.01424369      -0.03671024       0.01255371
