16
Properties=species:S:1:pos:R:3:forces:R:3 Coordinates=T from=T ORCA-job=T run=T Energy:=T 23.4888027=T energy=-19342.792307931624 pbc="F F F"
C        0.71730668      -0.04995711      -0.16131583       0.00443312       0.01502289      -0.01337550
H        1.70299869       1.86309459      -0.41062435      -0.03394196       0.00235911       0.00392992
Cl      -2.18881660      -0.64901461       2.01520255       0.01704145       0.00753307       0.00056341
H        1.41505328      -0.33279839       0.63609491       0.00141078       0.00246625      -0.02955593
C        0.68658431       1.49644958      -0.19603305      -0.02104213      -0.00548468      -0.01279862
H       -0.26376161      -0.41008438       0.17039095       0.03099637      -0.01821417      -0.03125617
C        1.14144116      -0.68780840      -1.48582448      -0.00901258      -0.00717807       0.02244130
H        0.42789175      -0.45744627      -2.28302909       0.01704507      -0.02324324       0.00877848
H        2.12992444      -0.34160164      -1.81813914      -0.02228490      -0.00461082       0.02821222
H        1.18749451      -1.77637864      -1.38924700      -0.00613966      -0.00678507      -0.00427987
C        0.20571431       2.08027264       1.14721655       0.00695735      -0.01142014      -0.00390667
H       -0.75981571       1.64650059       1.42131836      -0.00021962       0.02147626       0.02172240
H        0.91679732       1.80802165       1.93184313       0.00828247       0.00620719       0.00898756
H        0.13648062       3.17186024       1.10456156      -0.01642375      -0.01670220       0.01241550
C       -0.14752279       1.98984725      -1.30123365       0.00571250       0.01508935       0.00300411
N       -0.78133274       2.38757377      -2.18022405       0.01622691       0.02280224      -0.01656916
