16
Properties=species:S:1:pos:R:3:forces:R:3 Coordinates=T from=T ORCA-job=T run=T Energy:=T 57.3010743=T energy=-25532.730692878828 pbc="F F F"
C        1.12404875       0.06074756      -0.07489976      -0.01436798      -0.00230342      -0.02731997
H        1.75952443       2.02194164      -0.56354206      -0.00124683       0.00622007      -0.01364614
F       -1.52763576      -0.17436466      -0.09739793      -0.01213790      -0.00404952       0.00379219
Cl       2.95861001      -0.10225361       0.41817241      -0.01940458       0.02001306      -0.01678752
C        0.85036523       1.56823276      -0.15351346       0.01065819       0.00819919       0.01722706
H        0.75388067       1.91199365       0.88252733      -0.00235913       0.00451003       0.02962967
C        0.89789112      -0.73887781      -1.33089822       0.01206606      -0.00509555      -0.00671788
H       -0.18650843      -0.74406062      -1.47064148       0.02689862       0.01343789       0.03517415
H        1.40690842      -0.25313940      -2.16612581      -0.02352839       0.00676574      -0.00305433
H        1.26333506      -1.75713475      -1.20914819       0.00260756      -0.00092400       0.00321525
N        0.44781225      -0.62679551       1.15383750       0.00137724       0.00659000       0.00775290
O        0.21899871       0.06340091       2.13360108      -0.01198597      -0.02385149      -0.02848066
O        0.38433758      -1.84298398       1.12319356      -0.02137150      -0.00641679       0.02121991
N       -0.28900868       1.88896407      -1.01836091       0.02367370      -0.00227285      -0.02138540
H       -0.58800163       2.83374164      -0.78618582       0.00233280      -0.01718494       0.00398875
H       -1.04118081       1.22276400      -0.72098651       0.01250259      -0.00224606       0.00188625
