16
Properties=species:S:1:pos:R:3:forces:R:3 Coordinates=T from=T ORCA-job=T run=T Energy:=T 105.0290950=T energy=-12482.472846592345 pbc="F F F"
C        1.07229063       0.07499741       0.22513594       0.03599058      -0.05779607      -0.04388486
H        1.07290977       1.81679238      -1.00346476      -0.06269133       0.03301368      -0.02382257
F       -1.06889922       0.54483951      -2.51582023       0.04430099      -0.03461955       0.04917943
H        2.11500139       0.11813522       0.56857504       0.00095244      -0.01992758       0.01202190
C        0.57537435       1.55247014      -0.06207601       0.05031198      -0.07338989      -0.01337975
C        0.96657936      -0.78549017      -1.05058284       0.02695441      -0.01427503      -0.03200723
H       -0.02601041      -0.67022416      -1.51478114       0.05956527       0.01515987      -0.02786599
H        1.66919655      -0.40199523      -1.79704953       0.06992841      -0.03798549       0.04401528
H        1.22101997      -1.82687492      -0.82668201      -0.04857298      -0.00515454      -0.04227799
C        0.29234134      -0.54448105       1.29944191      -0.03820911       0.11743871      -0.01095945
N       -0.35758597      -1.04551347       2.11136475       0.04659686      -0.00544430       0.08736176
C        1.13815361       2.47102161       0.95866919       0.05394470      -0.19024326      -0.21703205
N        1.65186170       3.17880835       1.71090677      -0.04085831       0.11321008       0.19297298
N       -0.82954847       1.73869502      -0.27035253      -0.02939893       0.18764314       0.06613602
H       -1.35540987       1.30816866       0.48366293      -0.06858473      -0.03964513       0.01443708
H       -1.06276341       1.27470069      -1.21589812      -0.09553058      -0.00001765      -0.04447288
