16
Properties=species:S:1:pos:R:3:forces:R:3 Coordinates=T from=T ORCA-job=T run=T Energy:=T 189.2540985=T energy=-92314.6836669043 pbc="F F F"
C        0.15015749      -0.09965603       0.01869032      -0.00140331       0.11355670      -0.02621381
H        1.60344295       1.42182480      -0.27098713      -0.03055750      -0.04953069       0.01244465
Br      -1.89523791      -0.33576749       0.21181870       0.00925926       0.03083981      -0.00023808
Cl       3.73128914       1.01532321      -0.48385544       0.00338706      -0.03699583      -0.00369567
C        0.49928069       1.41807554      -0.06666823       0.07671908       0.16692486      -0.00168911
C        0.60916371      -0.88332104      -1.20605095       0.00111682       0.02512805       0.00285377
H        0.06484163      -0.55064985      -2.08982509      -0.01204189       0.04288671      -0.00373441
H        1.67818335      -0.68882123      -1.35387136       0.01435936      -0.00313241       0.08503175
H        0.44175883      -1.94944260      -1.06634394       0.00039927      -0.08286527      -0.01997122
C        0.65721456      -0.66041003       1.26627986      -0.00157708      -0.11516709       0.08879432
N        1.00738922      -1.13068488       2.26082486       0.02173248       0.07937136      -0.10239575
N        0.29068473       2.22728889       1.12156370      -0.07704580      -0.13439428      -0.07134639
H        0.99159979       1.98653633       1.81588936      -0.08805908       0.05136286      -0.02868494
H       -0.64194542       2.09686881       1.50544948       0.10810281      -0.03114143       0.03305641
C       -0.14401102       2.04587445      -1.22780314      -0.04940100       0.00920643      -0.03277485
N       -0.63016029       2.55472149      -2.14285149       0.01899589      -0.05650855       0.08260049
