15
Properties=species:S:1:pos:R:3:forces:R:3 Coordinates=T from=T ORCA-job=T run=T Energy:=T 86.6272677=T energy=-89805.44741390753 pbc="F F F"
C        1.26769193      -0.05289869      -0.04139844      -0.02507618       0.01394640       0.02259585
H        1.17307767       1.94243407       0.78395465       0.00301932      -0.00789694       0.01118969
Cl      -2.78489209       0.88216490      -0.93505760       0.00796052      -0.00796239      -0.00310045
Br       3.20428954       0.25572747      -0.64907706      -0.00385822       0.00063874       0.00107633
C        0.56403605       1.31714775       0.12659501       0.00259887       0.00426061       0.01215865
H       -0.38241435       1.09186344       0.64081464       0.00402078      -0.00529754       0.00179113
C        0.57481028      -0.91910761      -1.08570451       0.00565025       0.00689609       0.01196343
H       -0.48793194      -0.99070377      -0.82806191       0.00229172      -0.02240938      -0.01558721
H        0.64038746      -0.40789154      -2.04504904      -0.02384155      -0.02251158      -0.00708882
H        1.02171472      -1.91205607      -1.15295131       0.00556854       0.00514497       0.00083145
C        1.39956224      -0.72575377       1.24738228       0.00634902       0.00223886      -0.02689957
N        1.47514753      -1.24806261       2.27421085      -0.00663621       0.00689322      -0.00130931
N        0.31811338       1.95271988      -1.15297485       0.01641586       0.00468681      -0.01135306
H        0.45962719       2.95193100      -1.07723874      -0.00846820       0.01342961      -0.00824892
H       -0.66644413       1.79236649      -1.39373402       0.00896363       0.01067884       0.01726837
