16
Properties=species:S:1:pos:R:3:forces:R:3 Coordinates=T from=T ORCA-job=T run=T Energy:=T 183.7066316=T energy=-24987.52131178243 pbc="F F F"
C        0.98971878      -0.01857742      -0.00647665      -0.05758296      -0.01568012      -0.01810131
H        1.68207237       1.93933460      -0.45827827       0.01364226       0.06081199      -0.01414106
F       -1.66737119      -0.13473112      -0.24292207       0.02879458       0.02438233       0.01038659
Cl       2.84245455      -0.17520520       0.48028052      -0.01709341       0.04716955      -0.01071197
C        0.73652440       1.52417266      -0.09680767       0.03781000       0.03696526       0.01477575
C        0.82277075      -0.71863757      -1.34840881      -0.00063484      -0.02713044      -0.01898260
H       -0.25526824      -0.77286859      -1.50928259      -0.02119038       0.00295747       0.05281678
H        1.29558309      -0.14155903      -2.14365701       0.06475941      -0.01566900       0.02323421
H        1.26012465      -1.71668539      -1.29571208      -0.01321560      -0.03260777      -0.03163781
C        0.29949110      -0.71059679       1.08544158      -0.02244126      -0.11344686       0.04454679
N        0.01752940      -1.32436726       2.02329520      -0.00976843       0.03117383      -0.04065031
C        0.52803098       2.12559530       1.24796383      -0.04567405       0.02574072       0.03158054
N        0.33417525       2.70215187       2.23015653       0.04658387      -0.01604538      -0.09183397
N       -0.31362024       1.83660632      -1.05288393       0.03294521       0.00236489       0.07254857
H       -0.53640606       2.82578930      -0.98702919      -0.06998745      -0.05897641       0.03300176
H       -1.12815558       1.21400919      -0.78508772       0.02110773       0.04970430      -0.04792300
