17
Properties=species:S:1:pos:R:3:forces:R:3 Coordinates=T from=T ORCA-job=T run=T Energy:=T 31.2084239=T energy=-34903.19802940692 pbc="F F F"
C        0.05385991      -0.05746161       0.02238772       0.00206648      -0.03592399       0.01584306
H        1.76290439       1.20232901       0.26046410      -0.01766402       0.01946025      -0.02031811
Cl      -1.82492256       0.15546670      -0.10021973       0.00041247      -0.02681235      -0.00393991
Cl       3.84539366       0.10492364      -0.01057265       0.01602362      -0.00181045       0.00223718
C        0.67501842       1.33751955       0.10681234      -0.01006718      -0.03139366      -0.02635336
H        0.49093040       1.90152643      -0.80260283      -0.00344717       0.02873571      -0.01026098
C        0.51635591      -0.70944834      -1.27819665      -0.00391615       0.02253395       0.01357797
H        0.09022890      -1.71195419      -1.37093021      -0.00081916       0.03303698       0.01078448
H        0.21539925      -0.12383468      -2.14935190       0.01090799       0.02256065      -0.00849744
H        1.60997161      -0.78112664      -1.25426575      -0.00711015       0.00841771       0.00562398
C        0.34451598      -0.95231941       1.21755961      -0.00602167      -0.01445869       0.02112254
H        1.43241137      -1.02952556       1.31886062      -0.00653479      -0.00336248      -0.01397196
H       -0.06448208      -0.54794826       2.13985017       0.00341644       0.02094849       0.01657531
H       -0.07109479      -1.94780085       1.04441506      -0.00403686      -0.01060223       0.00289084
N        0.16403131       2.20837454       1.22085872       0.03676992      -0.01411118      -0.00402840
O       -0.30481281       3.29787919       0.91237460       0.03529716      -0.01651643      -0.02338099
O        0.28007219       1.80691140       2.37103377      -0.03680542       0.00473055       0.02280553
