15
Properties=species:S:1:pos:R:3:forces:R:3 Coordinates=T from=T ORCA-job=T run=T Energy:=T 11.3378776=T energy=-19532.409872750668 pbc="F F F"
C        0.16811634       0.00752319      -0.00663164       0.00069428      -0.00135267      -0.00085647
H        1.86447952       1.18332799       0.02105490       0.00144690      -0.03464926      -0.00063599
Cl      -1.77144541       0.20383374      -0.04253797       0.00296922       0.00200432       0.00061489
F        3.14937020      -0.29551963       0.04844326       0.00230969      -0.00524507      -0.00155332
C        0.77855357       1.39355805       0.00063512       0.00592157       0.02667117      -0.00042677
H        0.47608892       1.96387636       0.88293548      -0.00004783       0.02476709       0.03428741
H        0.50846931       1.95924580      -0.89511689       0.00177927       0.02314319      -0.03316146
C        0.58168656      -0.76064846      -1.24495599       0.00247272      -0.01551777      -0.02624260
H        0.13597995      -1.75863706      -1.26783534      -0.00515018      -0.03987907      -0.00413349
H        0.30719642      -0.22968908      -2.16036671      -0.00070755       0.01587599      -0.03666346
H        1.68114587      -0.82264405      -1.14006346       0.00192101       0.01709109       0.02909998
C        0.53772534      -0.75399585       1.24954560       0.00213264      -0.01542330       0.02574576
H        1.64036536      -0.81577590       1.18354633       0.00297320       0.01558870      -0.02891420
H        0.23089808      -0.21832090       2.15182584      -0.00209884       0.01614520       0.03746756
H        0.09192767      -1.75211654       1.26197946      -0.00596666      -0.03988786       0.00385901
