17
Properties=species:S:1:pos:R:3:forces:R:3 Coordinates=T from=T ORCA-job=T run=T Energy:=T 42.7219547=T energy=-78559.04306693509 pbc="F F F"
C       -0.00594691      -0.02426819      -0.04268210      -0.01519370       0.00751553      -0.01012837
H       -0.34530846       2.03270410      -0.63330841      -0.01006936      -0.00321673       0.01001735
Br      -1.91223203      -0.35353604      -0.96600929      -0.00122998      -0.00200134       0.00071700
F        2.80821600      -0.09152543       1.35695798      -0.00530614      -0.00584319       0.01021972
C        0.01647255       1.49453828       0.24828645       0.00278172       0.00923042       0.00558168
H       -0.70703485       1.68778235       1.05051503      -0.01276083       0.00405051       0.00108001
C        1.05616120      -0.47225639      -1.02657917      -0.01629449      -0.00313892       0.01263015
H        0.89534766      -1.50833817      -1.33528851       0.00679008       0.00364387      -0.01264271
H        1.09183779       0.16029313      -1.92004218       0.00125035      -0.00765785       0.02970549
H        1.99824217      -0.41125327      -0.45361132      -0.01602121       0.01168428      -0.00115384
C        0.02000527      -0.86401910       1.21560906       0.01112126       0.00420869      -0.02401506
H        1.04659340      -0.72192311       1.61171253      -0.00831864      -0.00572804       0.00400354
H       -0.73638177      -0.54341049       1.93898227       0.02676003      -0.00600841      -0.02658853
H       -0.12668486      -1.92485462       0.99350705       0.00049975       0.00390727       0.00847125
N        1.33062393       2.01581448       0.62721018       0.01038651       0.00207045      -0.03328087
H        1.84672344       2.20849886      -0.22753212       0.00749042      -0.00831278      -0.00735939
H        1.90961111       1.27166946       1.09034773       0.01154305      -0.00969542       0.02208342
