17
Properties=species:S:1:pos:R:3:forces:R:3 Coordinates=T from=T ORCA-job=T run=T Energy:=T 178.3337841=T energy=-24552.161257559666 pbc="F F F"
C        1.16796919      -0.02545742       0.00711610       0.01271856       0.00366218       0.00136990
H        1.62157244       2.04656360       0.02051945      -0.01020898      -0.01205121      -0.00559199
Cl      -2.45679980      -0.32532971      -0.03607518      -0.01445745      -0.01492677      -0.00082957
F        2.59813271       0.11179647       0.02527799      -0.00008394      -0.04761049      -0.00027420
C        0.67545387       1.48938865       0.00608314       0.01821775      -0.03231594       0.00378886
C        0.80978592      -0.77071935      -1.26232105      -0.00437731       0.01804589       0.00934362
H       -0.27901468      -0.83902105      -1.34763166       0.01165084       0.00881746       0.00742330
H        1.22394412      -0.26407045      -2.13641240      -0.01408328      -0.00014859      -0.04205197
H        1.22986270      -1.77827496      -1.20947900       0.02374738       0.00364104      -0.00925449
C        0.78195342      -0.78412674       1.26065166       0.00143447       0.01432681      -0.01333755
H        1.27269158      -1.76036435       1.23903098       0.00131771      -0.01248507      -0.00499404
H        1.10961324      -0.25243489       2.15594609      -0.00785697       0.00303084       0.04126103
H       -0.30391015      -0.91937875       1.28289547       0.01428367       0.03889696       0.00300192
C       -0.02053440       1.92810044       1.22138814       0.01926363       0.00318486       0.00847169
N       -0.39919887       2.34876240       2.22479726      -0.04573461       0.01945313      -0.00953708
C        0.00912095       1.93690701      -1.22326083       0.04349473      -0.02481429      -0.01552720
N       -0.34243702       2.35648610      -2.23701166      -0.04777051       0.02813661       0.02394371
