19
Properties=species:S:1:pos:R:3:forces:R:3 Coordinates=T from=T ORCA-job=T run=T Energy:=T 82.4332545=T energy=-23901.58425451177 pbc="F F F"
C        0.24256810      -0.02880160      -0.06481309       0.05767975      -0.05800995      -0.16721396
H        3.35864646       1.20879271       0.01854019       0.15703637      -0.00173434       0.02232853
Cl      -2.87021102      -1.54900378       0.09634915       0.03444855      -0.05430350      -0.00316204
H        4.08926910       1.23811842       0.17207926      -0.15612138      -0.00200742      -0.02533257
C        0.22111804       1.32615169       0.04177818       0.19765267      -0.00746881      -0.13846499
C        0.32928124      -0.83044581      -1.33506854      -0.07742165      -0.07683873      -0.04859339
H       -0.20783747      -1.76929773      -1.21967043      -0.00935093      -0.08054357       0.25408530
H       -0.09922624      -0.32995304      -2.19455214       0.06330088       0.08951750       0.03294913
H        1.38534957      -1.05231854      -1.56321063      -0.05279773       0.02965408       0.00418798
C        0.31439056      -0.78912515       1.23486008      -0.11681261       0.06464717      -0.05386568
H        1.35994977      -0.87490405       1.58652886      -0.15034161       0.08990942       0.01068572
H       -0.27993839      -0.23822451       1.96197266       0.14504146      -0.09280850       0.27033519
H       -0.11322242      -1.78757244       1.15079688      -0.00128305       0.04989575      -0.17877162
N        0.25595539       2.01013955       1.27947591      -0.02420681      -0.07875787      -0.15636993
H        0.02265854       2.98511342       1.13623046       0.06030233      -0.02847314       0.04541847
H        1.15451215       1.92117362       1.74683063      -0.13440663       0.05714810      -0.07408946
N        0.13906784       2.22719297      -1.12444733      -0.03422686       0.06405535       0.07660903
O       -0.01681714       3.43515110      -0.87364839       0.01232007      -0.12879946      -0.06250140
O        0.21612149       1.79534081      -2.27384436       0.03407212       0.16548495       0.19649713
