20
Properties=species:S:1:pos:R:3:forces:R:3 Coordinates=T from=T ORCA-job=T run=T Energy:=T 41.7409522=T energy=-79627.87611503345 pbc="F F F"
C        0.07257474      -0.12545508      -0.01894553      -0.02111454       0.03205285       0.03116893
H        1.57457882       1.21664524      -0.03797267      -0.01359959       0.01283274      -0.03085713
Br      -2.09291726      -0.24327455      -0.07337580      -0.01479434      -0.01972458      -0.00314592
F        3.02786094       0.13942672       0.17380504      -0.00439677       0.00557730       0.00607970
C        0.46346078       1.35084530      -0.00512969       0.01174749       0.02047702       0.01903090
C        0.58520167      -0.81648880      -1.26410218      -0.00064118       0.01782378       0.01788472
H        0.27671548      -1.86468913      -1.30112625       0.01299351       0.00355728       0.00471407
H        0.27760830      -0.29758477      -2.16993307      -0.00048656      -0.00348593      -0.00688714
H        1.67886091      -0.73474560      -1.13339652      -0.00953900      -0.00844915      -0.01338315
C        0.51943460      -0.85812543       1.22695459       0.01409407       0.00301422       0.00844504
H        1.61695147      -0.69215937       1.20932881      -0.02625575      -0.00514207      -0.00615918
H        0.07572339      -0.46367497       2.14285342       0.00830229       0.00133835      -0.01016623
H        0.29363319      -1.92615816       1.16146010       0.00854080       0.01506839      -0.01169685
C        0.10847057       2.12343608       1.27361249       0.00084817      -0.00121742      -0.00676522
H       -0.97166812       2.12647720       1.46540406       0.01296731      -0.00694709      -0.00276630
H        0.62246774       1.72922679       2.15453283      -0.01519511      -0.01156255      -0.02109051
H        0.43267041       3.16436337       1.15286739      -0.01038238      -0.00898554       0.03899296
N        0.00696614       2.03659948      -1.22651906       0.01678929      -0.02711089       0.00785246
H        0.44664037       2.95229471      -1.26175933      -0.01355753      -0.03059284      -0.02265103
H       -0.99984461       2.18688112      -1.16648120       0.04777902       0.01179705       0.00570207
