18
Properties=species:S:1:pos:R:3:forces:R:3 Coordinates=T from=T ORCA-job=T run=T Energy:=T 191.0071061=T energy=-33353.96489869563 pbc="F F F"
C        0.02455808      -0.13921202       0.01217285       0.02031403       0.08682494       0.02464188
H        1.59280560       1.26615432      -0.05152676      -0.01994828      -0.06869363       0.08091101
Cl      -1.87160071      -0.14243701       0.07938559      -0.05999820       0.02165934      -0.07853298
Cl       3.76064993       0.46252237      -0.02237498       0.04645834       0.02069479      -0.02540713
C        0.48552146       1.33479691      -0.00213578      -0.01864849       0.09259645       0.02543717
C        0.47727769      -0.85452704      -1.26997379      -0.02354302       0.02859463       0.02038731
H       -0.34574081      -1.40044820      -1.73122886       0.01562528      -0.05739461       0.02537136
H        0.86004246      -0.13170743      -1.98859971      -0.05264390      -0.03870615      -0.03303545
H        1.27950930      -1.55096857      -1.02266222       0.04500377       0.04816358      -0.05873563
C        0.50925624      -0.84592226       1.26628397      -0.00605459      -0.03314883       0.02692144
H        1.59988319      -0.74960239       1.28756181       0.04245991      -0.04821041       0.03746730
H        0.08961857      -0.41728018       2.17734875       0.00616612       0.06184305      -0.01248713
H        0.24306636      -1.90272612       1.23065256      -0.01051334      -0.08371454      -0.00752438
C        0.12613495       2.04766520       1.24037244      -0.09305359      -0.01317204       0.03531801
N       -0.21056344       2.66104364       2.15997077       0.09399017       0.00115583      -0.03566973
N        0.03349468       2.06859804      -1.18749015       0.03192213       0.01847513       0.06973309
H        0.64656729       2.86623451      -1.32156635      -0.06746003      -0.00473222      -0.05016739
H       -0.91338539       2.41175302      -1.05210708       0.05305704      -0.02699804      -0.04487694
