17
Properties=species:S:1:pos:R:3:forces:R:3 Coordinates=T from=T ORCA-job=T run=T Energy:=T 35.4832585=T energy=-21037.926220184643 pbc="F F F"
C        0.10815888      -0.05737989      -0.01581141      -0.01076212       0.01313619       0.00686415
H        1.70917257       1.21419011      -0.04508607      -0.01065444      -0.02134217      -0.04257828
Cl      -1.85555538       0.02458605       0.01782381      -0.01886669      -0.02508182       0.00187139
F        3.09057708      -0.12097645       0.03220196       0.00673683       0.00962605       0.01003853
C        0.61222607       1.37618827      -0.04014915      -0.00333815       0.03892832       0.00156912
H        0.32711875       1.86948582       0.90343014      -0.01049883      -0.00556865       0.03571534
C        0.53182123      -0.82202036      -1.25069862      -0.01020287      -0.01489518      -0.00351351
H        0.15111295      -1.84709205      -1.23722930       0.00272769      -0.02569886       0.00557044
H        0.21487083      -0.32020307      -2.16506936       0.01419751       0.02122885       0.01161711
H        1.63363287      -0.81089918      -1.16376997      -0.01882917      -0.01177142       0.00103363
C        0.56039242      -0.74961636       1.25151100      -0.01029935      -0.00506865      -0.00072187
H        1.66518303      -0.72995477       1.14959997      -0.02635811       0.00196551       0.02387203
H        0.23664765      -0.21266916       2.14914402       0.02533701       0.00751369      -0.01578501
H        0.18587915      -1.77627752       1.30333415       0.02475152      -0.00681664      -0.01322343
N        0.17963467       2.11681685      -1.23142732       0.00459031      -0.00092048      -0.04429038
H        0.64610387       3.01799083      -1.25230061       0.02525081      -0.01326677       0.01177686
H       -0.81969833       2.29349991      -1.16697422       0.00743043       0.03384292       0.01394997
