18
Properties=species:S:1:pos:R:3:forces:R:3 Coordinates=T from=T ORCA-job=T run=T Energy:=T 16.6593485=T energy=-20602.126939154827 pbc="F F F"
C        0.54485974      -0.03895158      -0.01399285       0.00313955       0.03196955      -0.02562721
H        2.40919788       0.97200020       0.13327614      -0.00619473       0.04736228      -0.02378939
Cl      -2.95909416      -0.57277094       0.00431710       0.02808332      -0.03205273       0.01759133
F        3.35113349       1.05767855       0.22271962       0.01660691      -0.04301678       0.01738666
C        0.44573033       1.29946422       0.02273590      -0.03065186       0.04594497      -0.02862407
H        0.40171963       1.82432873      -0.92935700       0.01051412       0.01599590      -0.03906955
C        0.69977869      -0.76302181      -1.32712052      -0.01105358      -0.01990437      -0.03116747
H        0.12461356      -1.68981765      -1.31320138      -0.06505570       0.00524425      -0.03401999
H        0.33108327      -0.16204840      -2.16012512       0.03138769       0.02864855      -0.01303852
H        1.74932433      -1.01690496      -1.52551734       0.03800144      -0.04357142       0.04317685
C        0.52266521      -0.89717566       1.22514252       0.01270159       0.01694583      -0.01203760
H        1.54469507      -1.12365964       1.56295431      -0.02530276      -0.00326232       0.02247301
H       -0.02590088      -0.41020456       2.03077614       0.05118531      -0.06905268       0.04885269
H        0.01252508      -1.83932836       1.01762615      -0.02287708       0.04429128       0.00953462
C        0.20353698       2.14604005       1.24271412       0.00431863      -0.01020781       0.01588479
H       -0.87456870       2.19022087       1.44067459       0.02370056       0.03226066       0.03108943
H        0.69535072       1.74758111       2.13245837      -0.02495577      -0.01415360       0.04287336
H        0.57118784       3.16899001       1.10487688      -0.03596920      -0.03715669      -0.04828474
