14
Properties=species:S:1:pos:R:3:forces:R:3 Coordinates=T from=T ORCA-job=T run=T Energy:=T 25.2539406=T energy=-7461.243311636906 pbc="F F F"
C        0.15251306      -0.08835408       0.03088698       0.00184040      -0.01136562       0.01434264
H        1.53989525       1.52097002      -0.09978651       0.00146147       0.01845698      -0.00143481
F       -1.27910012      -0.22964244       0.19748572       0.01909756      -0.00377803      -0.03055576
H        3.35346877      -0.18088735       0.34553233       0.01843928      -0.00010988       0.02229595
C        0.45359689       1.39966199      -0.01703230       0.00488293      -0.00537482       0.00692816
H        0.11072697       1.86270745       0.91109622       0.00722758       0.00779541       0.00005364
H       -0.04895672       1.87428198      -0.86683179       0.00204366       0.00041013       0.01139912
C        0.49679044      -0.78769211      -1.27997918       0.00170663      -0.01298207      -0.01714941
H        0.00231603      -0.32909153      -2.14436651      -0.03465823       0.00206780      -0.01182303
H        1.58563146      -0.73986238      -1.39450693       0.01440012       0.00044265      -0.02602839
H        0.19880700      -1.83993606      -1.22317145      -0.02940745      -0.02067152      -0.02349493
N        0.79585258      -0.66352212       1.17442403       0.00373529      -0.00160258       0.03689810
H        1.83376308      -0.48850129       1.03126246       0.00966783       0.03722927       0.01180687
H        0.69705258      -1.67733699       1.11620845       0.00089558      -0.00342446       0.00200228
