14
Properties=species:S:1:pos:R:3:forces:R:3 Coordinates=T from=T ORCA-job=T run=T Energy:=T 105.6951162=T energy=-22915.075294987648 pbc="F F F"
C       -0.04885745      -0.19369685      -0.00374101      -0.00199281       0.00967119      -0.00669479
H        1.58674480       0.98756864       0.07119332       0.01242083       0.00710648      -0.00051070
Cl      -1.96967877      -0.14282711      -0.03647130       0.00969579      -0.00378910      -0.01801352
F        2.76700024      -0.22648096      -0.13732541      -0.00242941       0.01252980      -0.01468481
C        0.48818689       1.24947245       0.04677574       0.00295637       0.01294980       0.00999659
H        0.16679347      -0.68946477       0.93987153      -0.00836178      -0.00004369      -0.01330361
N        0.45859074      -0.94482159      -1.08500026      -0.00269364       0.01336570       0.01277954
H        1.49724568      -0.92724542      -0.84551201      -0.01636823      -0.00916327      -0.00081750
H        0.37405981      -0.35658341      -1.91421032       0.00714478      -0.00759393       0.00542450
C        0.11542435       1.98597101       1.25915288      -0.00059813      -0.01966827      -0.01523695
N       -0.15856342       2.61048028       2.19346678       0.00676175       0.01515278       0.01226786
N        0.19084826       1.97661177      -1.19012533      -0.00287082      -0.00463630       0.01976216
H        0.84907370       2.73853484      -1.30744995      -0.01491251      -0.01324844      -0.00261082
H       -0.74674953       2.36572874      -1.16367168       0.00764832      -0.00423805       0.00234408
