16
Properties=species:S:1:pos:R:3:forces:R:3 Coordinates=T from=T ORCA-job=T run=T Energy:=T 46.9704451=T energy=-8968.919800209213 pbc="F F F"
C        0.70151498      -0.00129345       0.27487080      -0.01433647       0.01312342       0.00607153
H        1.50714456       1.74468637      -0.62277219      -0.00407797      -0.00144929      -0.03807260
F       -1.12939220      -0.12907915      -2.39359778      -0.00106978      -0.00897244       0.01382039
H        1.49490258      -0.17675931       1.02357381      -0.01726884      -0.00909771      -0.00054731
C        0.61870311       1.51314399      -0.01814092       0.02747396       0.00578212       0.01318023
H       -0.25766196      -0.28799721       0.75508802      -0.02436569      -0.02090014      -0.00021451
N        1.01039865      -0.75825238      -0.93692446       0.03011078       0.00541540      -0.01032930
H        0.21581261      -0.60009902      -1.61029780      -0.00597348       0.01178766      -0.00702957
H        0.98032802      -1.74966961      -0.70526436      -0.00757316      -0.02331495       0.00607842
C        0.70526613       2.32547610       1.27866335       0.00098334       0.00656692      -0.00538072
H       -0.12931241       2.07793530       1.94969016       0.00554244      -0.00868894      -0.00462350
H        1.63695810       2.13248640       1.82457176      -0.00985986       0.01924774       0.00350096
H        0.64178203       3.39435049       1.05466463      -0.00494464       0.01016744       0.00544493
N       -0.55672907       1.93913748      -0.78740725       0.03345947      -0.00510017       0.02903926
H       -1.36917442       1.82843891      -0.17788853      -0.00052729      -0.03192423      -0.00612135
H       -0.74171583       1.23650448      -1.54810505      -0.01707967       0.03694155      -0.01152115
