15
Properties=species:S:1:pos:R:3:forces:R:3 Coordinates=T from=T ORCA-job=T run=T Energy:=T 88.7801503=T energy=-22480.111886279446 pbc="F F F"
C       -0.10161265      -0.05216924      -0.03545913      -0.00411515      -0.07876690      -0.03355892
H        1.54792403       1.29635764       0.00388424       0.01773715      -0.06247551      -0.00368925
F       -1.50970884       0.00758701      -0.19448744      -0.00297879      -0.00041097       0.05483133
Cl       3.61466589      -0.56255170      -0.29737435      -0.05606266       0.04831964      -0.01872438
C        0.45272706       1.39079378      -0.01247964      -0.01589651      -0.05829992      -0.00452573
H        0.03428165      -0.54309998       0.93921700       0.02717204       0.10961706      -0.02373048
N        0.44237045      -0.75481635      -1.15131883       0.06841445      -0.09093802      -0.01516567
H        0.17474631      -1.73469293      -1.09918559      -0.01870837       0.06615241       0.03260372
H        1.47230997      -0.73465020      -1.08030691      -0.00268394       0.00709247      -0.01217367
C        0.04809573       2.08489671       1.20903576      -0.03695623       0.03576963      -0.03557622
N       -0.28056247       2.66495313       2.15035909      -0.02206415       0.02460001       0.09133758
C        0.00242785       2.16709537      -1.26580746       0.00745373      -0.04843112      -0.00059647
H        0.31262991       1.59209637      -2.13687749      -0.00255351       0.06612976      -0.06490811
H       -1.08635674       2.25076460      -1.27793172       0.03667442       0.05823302      -0.03292298
H        0.44241182       3.16774790      -1.30996578       0.00246014      -0.07867579       0.06733512
