13
Properties=species:S:1:pos:R:3:forces:R:3 Coordinates=T from=T ORCA-job=T run=T Energy:=T 110.5120698=T energy=-81440.52142336231 pbc="F F F"
C        0.87663399      -0.01298522       0.03574436       0.02891445       0.16298423      -0.05539966
H        1.90570465       1.79952336      -0.36923745      -0.09327168      -0.05347343      -0.06981246
Br      -2.24152852      -1.55769076      -0.17430221       0.04256609      -0.01652299      -0.06092470
F        2.06064936      -0.27337680       0.74096770      -0.04867023      -0.12582235      -0.04990192
C        0.86958114       1.54919850      -0.10332391      -0.02642559       0.02871723       0.05381004
H        0.04086508      -0.38265370       0.63900893      -0.00353375       0.08738654      -0.01107097
N        0.96399594      -0.60695150      -1.27041403      -0.02366157       0.07712729       0.10213818
H        0.00542680      -0.58642377      -1.63527061       0.01897889      -0.09283663       0.01806128
H        1.11560433      -1.60068387      -1.10954407       0.01082336      -0.05163952      -0.01288740
C        0.58802030       2.19882847       1.18719879      -0.06282623       0.13298188       0.02896640
N        0.39878300       2.72309358       2.19688261       0.05095578      -0.09967580      -0.15878441
C        0.00546198       2.07739303      -1.17203045      -0.01144591      -0.03309646       0.12739811
N       -0.63125091       2.52884896      -2.02034169       0.10239662      -0.03918901       0.09249882
