15
Properties=species:S:1:pos:R:3:forces:R:3 Coordinates=T from=T ORCA-job=T run=T Energy:=T 68.1136520=T energy=-80000.67157761782 pbc="F F F"
C        0.61166088      -0.03654276      -0.14680905       0.02293045      -0.04272979       0.00936871
H        1.86493724       1.68978152      -0.27265655      -0.00989077       0.02322573       0.01424892
Br      -2.66919920      -1.13921052       0.94213393       0.01179841      -0.00463152       0.01221203
F        1.51057806      -0.48186253       0.88830452       0.01745765      -0.00408770      -0.03481251
C        0.78999448       1.49368644      -0.14681924      -0.01463046      -0.01036086       0.00421458
H       -0.39609929      -0.32883431       0.17304684       0.00662475       0.00213419      -0.01026971
N        0.92024072      -0.63925985      -1.38765827       0.00581848       0.00853149       0.01326524
H        0.61557158      -1.60596760      -1.40193031      -0.00895874       0.04200566       0.00477171
H        1.91016041      -0.58795636      -1.60743279      -0.01849286      -0.00734311       0.02369321
C        0.30893868       2.10334405       1.18682870       0.01016810      -0.01059606      -0.00216086
H       -0.72144277       1.79728423       1.38455049       0.02457907       0.02378230      -0.01245208
H        0.93738382       1.73080182       1.99684486      -0.02421851      -0.01987260      -0.00672234
H        0.36435040       3.19567752       1.16845960       0.00843474      -0.03683686      -0.01314513
C        0.11628760       2.12733719      -1.28332452      -0.03624493       0.01237918      -0.01175300
N       -0.38891348       2.69385251      -2.15158626       0.01677503       0.01911287      -0.02080712
