17
Properties=species:S:1:pos:R:3:forces:R:3 Coordinates=T from=T ORCA-job=T run=T Energy:=T 169.1718466=T energy=-85564.31470798182 pbc="F F F"
C        0.30945847      -0.16623637       0.12826386       0.03473098      -0.15793865      -0.03713714
H        1.60040855       1.44369914       0.31744868      -0.02583177       0.16573868       0.12352541
Br      -2.40537972      -0.09963637       0.26924412      -0.07036238      -0.04374526      -0.10244723
F        2.91229902       0.19239749      -2.02704769      -0.03789491       0.03531215      -0.06567618
C        0.51459511       1.34161377       0.17459734       0.05056004      -0.07028640       0.05691325
N        0.76791317      -0.82177644      -0.86376096       0.01173477      -0.03460276      -0.14554174
H        0.70025934      -1.82694352      -0.71173392      -0.01970775       0.02553068       0.10621797
H        2.09137482      -0.22004992      -1.74293717      -0.11611448      -0.03529818       0.11043101
N        0.24789885      -0.92317859       1.46408337       0.05118187      -0.03447740       0.06307904
O        0.45477844      -0.27943058       2.48014107      -0.03172862       0.05156579      -0.04012672
O        0.14871410      -2.13868360       1.40869806       0.01198620       0.03477930      -0.03835527
C       -0.14946224       2.08570102       1.24837156       0.07932419       0.11918895       0.04624041
N       -0.57504014       2.84603975       2.00401093       0.03842680      -0.03822743       0.00331187
C        0.16737768       1.98421008      -1.18557976       0.08064888       0.00594589       0.02294342
H        0.81769738       1.56126635      -1.94687041      -0.08084435      -0.05600974      -0.09298235
H       -0.88455868       1.80363837      -1.41448806       0.10109182       0.00707064      -0.05115569
H        0.36424617       3.05728893      -1.14174173      -0.07313393       0.03117661       0.04574006
