16
Properties=species:S:1:pos:R:3:forces:R:3 Coordinates=T from=T ORCA-job=T run=T Energy:=T 97.7540370=T energy=-24988.703964757507 pbc="F F F"
C        0.30983950      -0.23935405       0.11664846       0.00221422      -0.02250579      -0.15892375
H        1.64579852       1.36383713       0.06907661       0.07537774       0.00580965      -0.01599175
Cl      -2.39911981      -0.06905280      -0.07774448      -0.00211792       0.01405851       0.00834748
F        2.97072389       0.29770952      -1.75186640      -0.06564508      -0.08966956       0.01570999
C        0.55332484       1.27671086       0.10255615       0.04486661       0.05482987      -0.01616534
N        0.81547630      -0.92395790      -0.84895700      -0.00368428       0.00649568       0.00053123
H        0.66099552      -1.92450906      -0.74841589       0.04841975       0.01102620       0.06995540
H        2.17201923      -0.22010644      -1.60103523      -0.06291282       0.08692613       0.00685283
C       -0.05919646      -0.85704686       1.37531449       0.02212179      -0.05348749      -0.12990067
N       -0.11464045      -1.40563666       2.39234550       0.00160303       0.01329193       0.05206675
C        0.03768695       2.02727668       1.33410312       0.04967856       0.01926806       0.08553846
H       -1.04282211       1.91903256       1.41574519      -0.01707950       0.01879182       0.02044467
H        0.51638918       1.62405423       2.22737067      -0.05675521      -0.01901892       0.11291952
H        0.30471007       3.08303246       1.26097919      -0.05111075       0.03857771      -0.01823843
C        0.08904267       1.92932279      -1.12691541      -0.02891940       0.00060712      -0.04593374
N       -0.20276387       2.56952303      -2.04056610       0.04157800      -0.07991511       0.01791116
