13
Properties=species:S:1:pos:R:3:forces:R:3 Coordinates=T from=T ORCA-job=T run=T Energy:=T 92.5068918=T energy=-33725.24241928579 pbc="F F F"
C        0.22998495      -0.18522344       0.17017522      -0.09458303       0.09891641      -0.00858215
H        1.81353324       1.12113254       0.74401086       0.04826533       0.00218088      -0.01404241
Cl      -1.79349695       0.30303035      -0.60275045       0.07445012      -0.03880656      -0.06126301
Cl       3.23921574       0.38091447      -2.14743495      -0.02136464       0.04385400      -0.04068327
C        0.78893361       1.22470634       0.37219241      -0.03280582       0.00202712       0.03679695
H        0.87354159       1.68916958      -0.61237298      -0.02757642       0.07960066       0.05544731
N        0.93861262      -0.91986475      -0.68195262      -0.05363716      -0.01524497      -0.01596457
H        0.71184857      -1.89391599      -0.80228709       0.01506511      -0.03139371      -0.00095938
H        1.63324620      -0.47794217      -1.34517325       0.00692492      -0.04737556       0.13225011
C       -0.25972893      -0.86395109       1.35738501      -0.05015674       0.02794486      -0.12466234
N       -0.59322580      -1.41126392       2.31535237       0.04155154      -0.11662433       0.12178170
C        0.03262645       2.05865154       1.30317806       0.05787896      -0.02257484       0.00284901
N       -0.49409308       2.72029000       2.08649317       0.04269167       0.01839503      -0.07906137
