15
Properties=species:S:1:pos:R:3:forces:R:3 Coordinates=T from=T ORCA-job=T run=T Energy:=T 115.7522709=T energy=-29483.128697462515 pbc="F F F"
C       -0.03897005      -0.11016608       0.06829394      -0.03271397       0.00362424       0.00615618
H        2.19006755       1.03212304      -0.07615397      -0.03267123       0.01249713       0.01096027
Cl      -2.12514619      -0.44113366       0.01797173      -0.01227822       0.03388768      -0.01333870
F        2.98817209       0.61206156      -0.37964138       0.03200466      -0.00525104      -0.03760175
C        0.27218244       1.30961429       0.06084104      -0.05427984      -0.00368781      -0.03882075
N        0.39367050      -0.75662071      -1.11991101      -0.02131996       0.06201831      -0.03883883
H        0.23401477      -1.75350562      -1.09914676      -0.01020707      -0.02280596       0.05071376
H        1.36091464      -0.53452686      -1.32769642       0.03693553      -0.00949469       0.01373004
C        0.23285294      -0.87632017       1.28288470       0.05958447       0.03582250       0.03892620
N        0.52692934      -1.62997662       2.10595270       0.03008872      -0.05421415       0.04287241
N        0.08260012       2.11313681       1.23401293      -0.06894305       0.00954479       0.04204105
O        0.04815314       3.34137157       1.09287872       0.06176604      -0.17477373       0.06169903
O       -0.00292415       1.54506670       2.32781211      -0.02194553       0.05456607      -0.06215055
C        0.15608117       2.01022665      -1.16664123       0.02967306       0.04192583      -0.00526944
N        0.10947216       2.56820707      -2.17954552       0.01279856       0.02283134      -0.08358056
