13
Properties=species:S:1:pos:R:3:forces:R:3 Coordinates=T from=T ORCA-job=T run=T Energy:=T 82.2108483=T energy=-81440.8265023856 pbc="F F F"
C        1.26283664      -0.06832526      -0.09635088      -0.07451410       0.07671402      -0.14145617
H        1.30916559       1.98444886       0.60908802       0.06937637      -0.05832180       0.02851081
Br      -2.50789481      -0.25471212      -0.05910493      -0.09132234       0.03516168       0.00309955
F        2.64822301       0.04468373      -0.40620842       0.00978358       0.07186527       0.11695656
C        0.67097760       1.35378173      -0.01361707      -0.12728070       0.12332052       0.08487785
H       -0.32728520       1.28693736       0.44859481       0.04861572      -0.10056835      -0.07252885
N        0.61860052      -0.79286402      -1.11615083      -0.22197691      -0.05955463      -0.10439793
H       -0.35911996      -0.48461509      -1.20038834      -0.06459026      -0.19026587       0.05432025
H        0.59017307      -1.78898207      -0.94350948       0.11896699      -0.06911023       0.03678421
C        1.26133363      -0.74501261       1.24175017       0.18860761       0.29684747      -0.43198380
N        1.34652900      -1.33050551       2.22944651      -0.05947243      -0.06178938       0.19393334
C        0.49474294       2.00965722      -1.31583601       0.07504418       0.02751563       0.18920315
N        0.30465702       2.61546393      -2.27886647       0.13412105      -0.08493242       0.04780490
