14
Properties=species:S:1:pos:R:3:forces:R:3 Coordinates=T from=T ORCA-job=T run=T Energy:=T 217.9144868=T energy=-80437.00981839695 pbc="F F F"
C       -0.14659232      -0.06790923      -0.12683875       0.00598404      -0.01794695      -0.02328754
H        1.19906865       1.53210731      -0.58682200      -0.01624964       0.04587826       0.00236478
F       -1.45869818      -0.07332716      -0.70272344      -0.03720558       0.01922261      -0.00669242
Br       3.85266208       0.45767943      -0.22471664      -0.01237652       0.01034601       0.04351473
C        0.30950628       1.40283365       0.03829455      -0.02252455      -0.01922530      -0.02285605
H       -0.50422876       2.00275301      -0.37456982      -0.01672245       0.00084278       0.01257513
N        0.71913679      -0.75636654      -1.00994848       0.02699543      -0.01446305       0.01877826
H        0.61531193      -1.76328938      -0.96789809      -0.00838842       0.02673600       0.05572317
H        1.70540116      -0.49448836      -0.87417286      -0.00762793       0.00754517      -0.02468708
C       -0.35805071      -0.77922692       1.16789797       0.04265912      -0.06118429       0.05176779
N       -0.47516099      -1.44105477       2.10614481      -0.04085642       0.05561021      -0.03846407
N        0.52290048       1.79840768       1.43517777       0.03634760      -0.02824670      -0.05304068
H        0.64139951       2.80797290       1.44294083      -0.00181938      -0.01240331       0.06327342
H        1.42344004       1.42338664       1.73146673       0.03759179      -0.00980203      -0.06730611
