18
Properties=species:S:1:pos:R:3:forces:R:3 Coordinates=T from=T ORCA-job=T run=T Energy:=T 174.2648460=T energy=-11041.850121824478 pbc="F F F"
C        1.13507394      -0.11986911      -0.05703286       0.01268591      -0.02418785      -0.01359872
H        1.88045420       1.92002080       0.00700362      -0.01437326      -0.00136503      -0.01780386
F       -1.80381563       0.08157365      -0.10644808       0.00319962       0.01772692      -0.02190096
H        2.21341093      -0.24324320      -0.23880998       0.03652564       0.00610978       0.00610127
C        0.88842430       1.44550788      -0.02861216       0.00092344      -0.02739969       0.01395924
N        0.41820305      -0.72015701      -1.18480875       0.00498961      -0.01136150      -0.03355303
H       -0.59659946      -0.55833983      -0.93347540      -0.00328991      -0.01707547      -0.01407031
H        0.57967098      -1.72543488      -1.14232473       0.01644722      -0.00911587      -0.00064428
C        0.78009415      -0.79011911       1.27945413      -0.02148400      -0.00281658       0.01176097
H        1.28108461      -0.33932667       2.14501361       0.00423781       0.00328882       0.01503294
H       -0.30468116      -0.70789584       1.38577227      -0.03980221       0.00933673       0.00535601
H        1.05986003      -1.85108680       1.24080936       0.00779735       0.00146005       0.00890974
C        0.22189109       1.93068130       1.18882841       0.00992266       0.01182625       0.01476649
N       -0.20886521       2.41479553       2.14460107       0.02289876       0.01120616       0.01704301
C        0.12445964       1.98091479      -1.25593737      -0.00454984       0.01200750       0.00994780
H        0.61029457       1.63931313      -2.17042447      -0.01345496       0.00428925      -0.00697265
H       -0.88672458       1.56873321      -1.19697826      -0.00293075      -0.02299051      -0.00455364
H        0.10125923       3.07590445      -1.23798941      -0.01780537       0.03740518      -0.00432907
