17
Properties=species:S:1:pos:R:3:forces:R:3 Coordinates=T from=T ORCA-job=T run=T Energy:=T 220.6469180=T energy=-21285.145502329837 pbc="F F F"
C        1.16476798      -0.07733689      -0.11833988       0.00077515      -0.04733611       0.01595106
H        1.85196838       1.93006623       0.32057097      -0.00007181      -0.00164270      -0.00102925
Cl      -2.60338015      -0.29692127       1.11909435      -0.03633831      -0.01151170       0.01664922
H        2.11260978      -0.18709115      -0.66792598       0.00629690      -0.02422181       0.00825293
C        0.91523034       1.48020811      -0.04146746       0.00759820      -0.03604735       0.00073646
N        0.15862241      -0.86834586      -0.80984965      -0.02543386       0.09111384      -0.13562530
H        0.02079190      -0.52313156      -1.75559408      -0.01640947       0.01110773       0.00362224
H       -0.74420084      -0.80749070      -0.32783726       0.02485253      -0.04329618       0.03676650
C        1.32929365      -0.65730881       1.28832580       0.02342198      -0.00432307       0.01363894
H        2.02909589      -0.07940277       1.90446221      -0.00394152       0.01965600      -0.01316527
H        0.35519045      -0.69409117       1.78665342       0.08107194       0.01641881       0.01742983
H        1.70572198      -1.68016148       1.20812229      -0.03410106       0.00169411       0.03367417
N       -0.15961036       1.97125825       0.81438659      -0.02123504       0.01750322       0.01038320
H        0.10695454       1.80768535       1.77933061      -0.01579829       0.00630771       0.03757990
H       -1.01682442       1.42137008       0.68831286      -0.01756430      -0.00163157      -0.02219766
C        0.73792992       1.99992922      -1.41128006       0.01576665       0.00307244      -0.00511496
N        0.63026899       2.36223703      -2.50168657       0.01165875       0.00570701      -0.01890014
