15
Properties=species:S:1:pos:R:3:forces:R:3 Coordinates=T from=T ORCA-job=T run=T Energy:=T 40.0110606=T energy=-77300.44119847877 pbc="F F F"
C        1.13070729      -0.17466757      -0.14996596      -0.01299218       0.00901472      -0.01220996
H        1.11226815       1.84796355       0.73638846      -0.00137595       0.00115232      -0.00031392
Br      -2.68081648      -0.19396526       0.85120821      -0.01164121       0.00397032      -0.00546427
H        2.15040649      -0.14129155      -0.55750956      -0.00208686       0.01512600       0.01240930
C        0.59625868       1.29185646      -0.05595867      -0.00429438       0.01340490      -0.00252801
H       -0.47099973       1.24151528       0.20754222       0.00587498       0.01799066       0.01659998
N        0.33484843      -1.03271722      -1.02462736      -0.00549530      -0.01953547      -0.00325021
H        0.27259860      -0.61621629      -1.95059795       0.00986029       0.00044362       0.00023613
H       -0.62153865      -1.06189881      -0.65877761      -0.00089426      -0.00072794       0.00872902
C        1.17254280      -0.77969716       1.25439316       0.00231989       0.00030576      -0.00667511
H        1.84041040      -0.21150267       1.91183755       0.01274630      -0.01914070       0.00564050
H        0.16942966      -0.77990422       1.69047195       0.00043709      -0.02101832      -0.00987414
H        1.52625639      -1.81215987       1.19710738       0.00786345       0.00068743       0.01137602
C        0.76718686       2.02560281      -1.30358522      -0.00690510      -0.00656000      -0.00314282
N        0.93508948       2.58418339      -2.30089116       0.00631359       0.00415112      -0.01092570
