16
Properties=species:S:1:pos:R:3:forces:R:3 Coordinates=T from=T ORCA-job=T run=T Energy:=T 54.3486882=T energy=-11670.10624887514 pbc="F F F"
C       -0.02502881      -0.05154883      -0.27491238       0.00926405      -0.00635834      -0.00452075
H        0.13173569       1.92025264      -1.03084930      -0.01375302       0.00500955      -0.01325908
F       -1.07590898      -0.41202765      -1.16511836      -0.07701626      -0.00924681      -0.04822520
F        2.37543258      -0.50247389       1.44853201       0.00534566      -0.00396921      -0.03299269
C       -0.12528256       1.46053698      -0.07194227      -0.03390416       0.01503785      -0.03004029
H       -1.17743832       1.67678819       0.14260622      -0.01546047       0.02965151      -0.03811044
N        1.21262731      -0.39881055      -0.96382498      -0.08154728      -0.05612936       0.06022556
H        1.07924509      -1.35505444      -1.29906762       0.07245861       0.04541124       0.07661893
H        1.90814721      -0.46364215      -0.18070932      -0.02240819      -0.02189481      -0.03521101
N       -0.28738679      -0.74383645       0.98209394       0.08749011      -0.00445630      -0.10739028
H        0.65657160      -0.73030530       1.43463693      -0.00949028      -0.05865909       0.06477969
H       -0.45066188      -1.72145964       0.73678224       0.04795968       0.01974189      -0.00180541
C        0.77075169       1.99854189       1.05052773      -0.04436573      -0.02299610      -0.01459004
H        0.30131552       1.81705832       2.02293261       0.01733387       0.06160001      -0.02716410
H        1.72137715       1.46028639       1.07984175       0.04955489       0.03907802       0.06116665
H        0.92641525       3.07832666       0.92945413       0.04437922      -0.02592642       0.07172557
