18
Properties=species:S:1:pos:R:3:forces:R:3 Coordinates=T from=T ORCA-job=T run=T Energy:=T 104.0450877=T energy=-14531.470614129497 pbc="F F F"
C        0.03825539      -0.06814145       0.04584705       0.04606488       0.06397803       0.01411257
H        1.59492737       1.37677459      -0.12985485      -0.06554236      -0.01150305      -0.00772491
F       -1.37249065      -0.10901624       0.14537307       0.09187017       0.03369507       0.01778378
H        2.99318744      -0.93919050       0.05613399      -0.04454608       0.03806925      -0.00997807
C        0.51045717       1.40695433       0.01630107      -0.05898789       0.10609225      -0.06816675
N        0.38336697      -0.69159892      -1.21209757      -0.00807861      -0.01588254       0.03672757
H       -0.01250988      -1.62912867      -1.19600348       0.00005518      -0.04230279       0.00333774
H        1.41283871      -0.82605221      -1.15719636      -0.02556468       0.00522930       0.01080772
N        0.57700769      -0.63862121       1.25449369       0.02658661      -0.08935496      -0.03512070
H        1.60189352      -0.78255418       1.02832464       0.00390389       0.00621493       0.01221902
H        0.19651341      -1.58057747       1.33032975      -0.02215417      -0.04321875       0.01296305
C        0.09988961       2.20289683       1.24714801       0.00240267      -0.00085184       0.02056636
H       -0.96670986       2.08348119       1.43331503      -0.00843707       0.04475534      -0.01480104
H        0.64582059       1.81999430       2.10626360       0.01821395      -0.03793465       0.02148532
H        0.32147894       3.26744500       1.12052029       0.01277217      -0.02541338       0.00223378
N       -0.04068628       2.10447764      -1.22232826      -0.06584895      -0.01423367      -0.04392718
O       -1.18995619       2.52896639      -1.16825619       0.00420091      -0.02609633       0.00057440
O        0.69209933       2.23220052      -2.18973654       0.08539825       0.01791395       0.02723495
