13
Properties=species:S:1:pos:R:3:forces:R:3 Coordinates=T from=T ORCA-job=T run=T Energy:=T 40.7586295=T energy=-24454.186411135175 pbc="F F F"
C        0.95918957       0.06787070      -0.09861353       0.01887537      -0.03225960      -0.00865162
H        1.74009340       2.09451994      -0.25562250      -0.02212463       0.00781922      -0.00585888
F       -1.69374790      -0.00196150      -0.54635477       0.01140553      -0.01881918      -0.02259874
Cl       2.40779093      -0.42801709       0.87539945      -0.01685620      -0.00099818      -0.00624672
C        0.78719178       1.56705842      -0.12457784       0.00852563      -0.02776306      -0.01668085
H        1.14182387      -0.27145614      -1.11416709       0.00898026       0.01251183      -0.02846753
H        0.03908592      -0.39636864       0.26428920       0.00010102       0.03269421       0.02171645
N        0.37629493       2.06917160       1.30443677       0.02468717       0.02084231       0.01731199
O        0.41649246       3.28295069       1.44448503      -0.00527563      -0.01620079      -0.00239240
O        0.00285615       1.29285305       2.14891334      -0.03948797       0.00485691       0.02252026
N       -0.18282396       1.90820242      -1.08246310      -0.00743742       0.00243305      -0.00376345
H       -0.44265590       2.88194441      -0.99098021       0.01372559       0.02641079      -0.01566579
H       -1.00547513       1.20392555      -0.94672068      -0.00780930      -0.01531153       0.03070223
