12
Properties=species:S:1:pos:R:3:forces:R:3 Coordinates=T from=T ORCA-job=T run=T Energy:=T 142.7214297=T energy=-146243.16738646186 pbc="F F F"
C        0.95514135       0.09375019      -0.02706085       0.03401670      -0.04348399      -0.00292309
H        1.80680095       2.01651112      -0.38088567      -0.00866370       0.02462031       0.03546285
Br      -2.38045994      -0.55336109      -0.83467301      -0.04290808      -0.00065249       0.03736608
Br       2.68298652      -0.44853026       0.72512081       0.01756094      -0.06327756       0.05000915
C        0.83772970       1.61099521      -0.06122110      -0.03110637      -0.03858594      -0.12161802
H        0.89913975      -0.30184560      -1.03632933       0.09308716       0.04851018      -0.06845089
H        0.17147737      -0.37906046       0.55339881      -0.06453347      -0.04081706       0.09976398
C        0.61352869       2.16206287       1.29672167       0.03981358       0.07030263       0.04748584
N        0.47134193       2.67450871       2.32181299      -0.04265287      -0.06426925      -0.13654583
N       -0.15524638       1.96547975      -1.05287491      -0.06686765       0.06469055       0.01159064
H       -0.41033507       2.94161112      -0.97038901      -0.06232581      -0.01384811       0.02954569
H       -1.00007468       1.37981110      -0.96142840       0.12931307       0.06036116       0.02040733
