13
Properties=species:S:1:pos:R:3:forces:R:3 Coordinates=T from=T ORCA-job=T run=T Energy:=T 105.7493856=T energy=-88288.55767008722 pbc="F F F"
C        0.98481482       0.09919556      -0.22297629      -0.00396828       0.02045503      -0.02281176
H        1.80887005       2.07534205      -0.10857493       0.02766270       0.01658036      -0.01363522
Br      -2.18546919      -0.96795201       1.07980347      -0.01345507      -0.00310721      -0.00849541
Cl       2.37306155      -0.44269145       0.79363577      -0.03447251       0.01102540       0.01885538
C        0.81156816       1.61737360      -0.09684305       0.00884189       0.02412365      -0.00014187
H        1.23183035      -0.19162095      -1.24290809       0.01083488      -0.00576583      -0.00054170
H        0.08653846      -0.42956501       0.12548362       0.02534396      -0.00600997       0.02927642
C        0.07726203       2.02405222       1.18214891      -0.00118882      -0.01676990       0.01625862
H       -0.87736588       1.49516174       1.25049635      -0.02838538      -0.00230878      -0.01369781
H        0.67574265       1.73651171       2.04866899       0.02839272      -0.01013515       0.00909657
H       -0.08725372       3.10473821       1.21261873       0.01529883      -0.01235248      -0.00093840
C        0.14182703       2.13771347      -1.28796862      -0.01315148      -0.02421880      -0.02753390
N       -0.33379361       2.57683669      -2.24235801      -0.01240047       0.00436559       0.02177917
