12
Properties=species:S:1:pos:R:3:forces:R:3 Coordinates=T from=T ORCA-job=T run=T Energy:=T 32.1135841=T energy=-88724.53095872406 pbc="F F F"
C        0.30007910       0.10775965       0.60677138       0.00712637       0.00054645       0.02325523
H        0.97439360       1.28232015      -1.01464040      -0.00363619       0.02586621       0.01492143
Br       0.60116689      -0.70270139      -2.80985380       0.00849283       0.01652429      -0.00316039
Cl       1.84703594      -0.54463089       1.26221327      -0.01744249       0.04378858      -0.02381843
C        0.49282774       1.47826507      -0.04107758      -0.01301837      -0.02564216       0.00810761
H       -0.01458612      -0.58850212      -0.17450815      -0.01329192       0.02029249       0.02156255
H       -0.39173044       0.15549064       1.44675142       0.01577176      -0.01975574       0.01686831
N        1.18053179       2.42463523       0.84365039      -0.00197007      -0.05306093      -0.05389184
H        1.43633793       3.24240437       0.30005315      -0.02125642      -0.03787356       0.02048530
H        2.05006582       1.98541466       1.12843204       0.00254641       0.02027655      -0.01089969
C       -0.85030378       2.00598623      -0.30965526       0.03289601       0.00186647       0.03010162
N       -1.90195200       2.45286089      -0.45966750       0.00114076       0.01269638      -0.04284458
