14
Properties=species:S:1:pos:R:3:forces:R:3 Coordinates=T from=T ORCA-job=T run=T Energy:=T 24.7156492=T energy=-10157.49247640592 pbc="F F F"
C        1.08333260       0.07057925       0.13144998      -0.02511510       0.00322085      -0.00699337
H        1.85914448       2.07043313       0.12363132       0.01984571      -0.01472834      -0.00985025
F       -1.76563382       0.33724888      -0.44989532       0.00908180      -0.01207913       0.00369681
F        2.05455257      -0.38385897      -0.76943346       0.00198425       0.02033162       0.02155734
C        0.87939541       1.56971811       0.04960341       0.00425993       0.00681666       0.01431592
H        0.11104970      -0.37710483      -0.10926448      -0.02356995      -0.03244864      -0.00271745
H        1.42624113      -0.22601291       1.13277490      -0.01177165       0.00239393      -0.01823297
C       -0.02599599       1.97275155       1.22250012       0.01847223      -0.00747226      -0.01687963
H       -0.97476831       1.44566466       1.03665873       0.01720361       0.01594568       0.02278160
H        0.38934513       1.71320674       2.20868451      -0.01361407       0.00153530      -0.02676078
H       -0.20476868       3.05678873       1.20715312       0.01658316      -0.03325916       0.00286873
N        0.26182661       1.86837126      -1.23974358       0.00361955       0.00512141       0.03245147
H        0.01060324       2.85457045      -1.23103642      -0.02116210      -0.00045197      -0.01967339
H       -0.64371951       1.33544243      -1.17577221       0.00567125       0.00827760      -0.01394340
