10
Properties=species:S:1:pos:R:3:forces:R:3 Coordinates=T from=T ORCA-job=T run=T Energy:=T 64.0037153=T energy=-87219.95771926768 pbc="F F F"
C        0.97443557       0.01259626      -0.17924591      -0.02480742      -0.03125357       0.01262234
H        1.05783873       2.00733447       0.64382232      -0.03779587      -0.00937552      -0.05637021
Cl      -1.91509732      -0.26707447       1.43783717       0.03273302       0.02462465      -0.00557545
Br       2.90686016      -0.11225824      -0.53762736       0.06149513      -0.03404314       0.00742100
C        0.49609741       1.44521277      -0.10979499      -0.02160021       0.01427422       0.01667595
H        0.48353371      -0.54085703      -0.97404101      -0.00524524      -0.01275125      -0.02441755
H        0.78234455      -0.48859264       0.76429311      -0.01896923       0.01589802       0.04935030
H       -0.54848387       1.37404052       0.24454225       0.00624759      -0.03537806       0.01022814
C        0.56070654       2.13587491      -1.38546274       0.03019303       0.03835418      -0.07830197
N        0.60909431       2.66301285      -2.41087458      -0.02582887       0.02139142       0.07569117
