14
Properties=species:S:1:pos:R:3:forces:R:3 Coordinates=T from=T ORCA-job=T run=T Energy:=T 19.2364601=T energy=-77481.4051556321 pbc="F F F"
C        0.18003243      -0.00238083      -0.11432080       0.01822666      -0.05224932      -0.04363128
H        1.57762791       1.53040026      -0.15513669      -0.06993979       0.01366508       0.05388060
F       -1.21880941      -0.20013023      -0.07032789      -0.02163048       0.04642420       0.03275058
Br       3.69523058      -0.39153110       0.65524311      -0.02957303       0.03066598       0.02611423
C        0.48457957       1.47392059      -0.06543767      -0.03961032      -0.05226173       0.04858792
H        0.53006156      -0.41731134      -1.05963267       0.02309605      -0.06403479       0.01544449
H        0.63134922      -0.54362277       0.71973663       0.00937290       0.06293338      -0.07136262
C        0.03064084       2.09934578       1.25419114       0.01328543       0.00017265      -0.00300583
H       -1.04731613       1.95270223       1.39517813       0.02918523       0.01778477      -0.02744247
H        0.54631646       1.66863493       2.11867401       0.06623091      -0.02797647      -0.08967727
H        0.22962044       3.17692668       1.24822163      -0.00935308       0.00957868       0.04475777
N       -0.12948699       2.10326687      -1.24068065       0.02416296      -0.02401170       0.08247793
H        0.05689556       3.10083908      -1.21604498      -0.05266480      -0.03533252       0.00072132
H       -1.13491070       1.98811021      -1.14701764       0.01578055       0.06713741      -0.07407102
