14
Properties=species:S:1:pos:R:3:forces:R:3 Coordinates=T from=T ORCA-job=T run=T Energy:=T 22.7937709=T energy=-33822.983509282254 pbc="F F F"
C        0.21395765      -0.04690664       0.15862879      -0.02238366      -0.01855241       0.00857895
H        1.43035020       1.61511601       0.41649456      -0.01458869       0.01396065       0.00574204
Cl      -1.46029667      -0.56225074      -0.25026151       0.03241990       0.01068882       0.01277354
Cl       3.08264620      -0.02889836      -1.46565757      -0.00300662      -0.04424635      -0.01191798
C        0.38713217       1.44665589       0.13438663      -0.00550226      -0.03680088       0.01259867
H        0.91201919      -0.53542525      -0.53437524       0.02255082       0.02820446       0.02461331
H       -0.25386765       1.91115328       0.89032506      -0.00907131      -0.00625339      -0.01519227
N        0.51724563      -0.63932628       1.52928139      -0.00310356      -0.02279918       0.00544734
O        0.81919383       0.12598146       2.41904617      -0.00866619       0.02942456      -0.00570866
O        0.45756649      -1.84147801       1.63229708       0.00975054      -0.00874947      -0.03229351
C        0.15994016       2.02334925      -1.25345700       0.00930381       0.01699226       0.01107172
H        0.86297489       1.56539526      -1.95367277      -0.01103589      -0.00372097      -0.01342266
H       -0.86516226       1.86719439      -1.60154104       0.00751785       0.00187192      -0.00715279
H        0.35356654       3.09870378      -1.23792044      -0.00741873       0.04477351      -0.01804704
