12
Properties=species:S:1:pos:R:3:forces:R:3 Coordinates=T from=T ORCA-job=T run=T Energy:=T 97.4695214=T energy=-92780.52117350137 pbc="F F F"
C        0.39971282      -0.07398187       0.17442456      -0.00330673       0.09488233      -0.09490316
H        1.69667303       1.52515420       0.66265106      -0.05277073      -0.00372915      -0.02378616
Br      -1.32456752      -0.42681468      -0.63638432      -0.01683730      -0.07728666      -0.02339887
Cl       3.19423870       0.10637125      -1.38359950      -0.06406821      -0.01231932       0.01362189
C        0.66794859       1.40724961       0.30712949      -0.00980244       0.04536516       0.01420515
H        1.19347401      -0.48676201      -0.47922605       0.00966946       0.02244198       0.07971694
H        0.66062624       1.81298495      -0.70833898       0.02740333       0.04451995       0.06028944
N        0.48469429      -0.78881581       1.49768656      -0.00451090       0.07615199       0.03609647
O        0.88414418      -0.13406738       2.43710680       0.05726866      -0.08443272       0.04494364
O        0.20276573      -1.96143899       1.52350468      -0.00771273      -0.08841396      -0.02115871
C       -0.26520444       2.13230212       1.16101701       0.01192634      -0.04030450      -0.01153295
N       -0.99767734       2.71550037       1.83362628       0.04530182       0.02209645      -0.08412878
