15
Properties=species:S:1:pos:R:3:forces:R:3 Coordinates=T from=T ORCA-job=T run=T Energy:=T 97.3028105=T energy=-84045.26688022302 pbc="F F F"
C        0.64614114      -0.01883290       0.15190420      -0.00612425      -0.01864156       0.00845395
H        1.75231757       1.78915245       0.40524271       0.01780725       0.00770856      -0.00825709
Br      -2.44433093      -0.56586080      -1.14194058      -0.00046918       0.01471687      -0.00253302
F        1.39578426      -0.47520402      -0.88850986       0.00292969       0.03298390      -0.00275792
C        0.71693060       1.50301982       0.18437033       0.00690060      -0.01731219       0.01435402
H       -0.39184021      -0.39427817       0.03504269      -0.00781375       0.01275388       0.00039162
N        1.24916746      -0.65485187       1.38560569      -0.01261998      -0.02346367      -0.00085875
O        1.46357936       0.04827064       2.35445375      -0.01918778       0.01034262      -0.02545211
O        1.45379706      -1.84409490       1.32022655       0.03969999       0.00429161      -0.00469191
C       -0.10759405       2.07210902       1.24734445      -0.01108167       0.02359055      -0.00595052
N       -0.74275936       2.60554867       2.04658184       0.00478155       0.00539880       0.00138852
C        0.28208965       2.06649080      -1.17623998      -0.01698580      -0.00759488       0.00426419
H        0.98068111       1.74518029      -1.94983457      -0.00177043      -0.01752852       0.01396917
H       -0.71335641       1.69257259      -1.42776679      -0.02271557      -0.02547303      -0.01532333
H        0.26402844       3.15783034      -1.14646641       0.02753292       0.00708708       0.02882112
