12
Properties=species:S:1:pos:R:3:forces:R:3 Coordinates=T from=T ORCA-job=T run=T Energy:=T 58.9314433=T energy=-21400.35784960161 pbc="F F F"
C        0.34753873      -0.03050500       0.01604977      -0.02450336       0.00426844      -0.01184315
H        1.67621800       1.50855688       0.01522850       0.00719583      -0.00239216      -0.00757834
Cl      -1.55685484      -0.28977458      -0.04739437       0.01065285       0.00450195      -0.01097432
F        2.61984267      -0.20871331       0.12869958      -0.00815527      -0.02156132      -0.00093055
C        0.58550738       1.46471021      -0.00368968      -0.00058449       0.00807788      -0.00183869
H        0.69819023      -0.50515314      -0.88897390       0.01426219      -0.01688018       0.01945699
H        0.17744493       1.89723373       0.92436735      -0.00021109       0.01345571      -0.00493738
C        0.81817306      -0.70779358       1.21307315      -0.00184382       0.01495258       0.00353194
N        0.86126486      -1.24340884       2.24099017       0.01121257       0.01397234      -0.02617440
N        0.06796356       2.06494259      -1.22659015      -0.01054602       0.01454460       0.02162897
H        0.41317945       3.01490418      -1.29866913      -0.00910476      -0.02571699       0.02755717
H       -0.94375304       2.11614326      -1.17403226       0.01140408      -0.00463893      -0.01028703
