14
Properties=species:S:1:pos:R:3:forces:R:3 Coordinates=T from=T ORCA-job=T run=T Energy:=T 104.1093565=T energy=-23473.682999606808 pbc="F F F"
C        0.93203132       0.00632147       0.04717348      -0.03517060       0.00178185       0.00089477
H        1.84172933       1.90338077       0.39497170       0.01924758      -0.00815557       0.03683056
Cl      -2.33852449      -0.57572906      -0.21974239       0.04645007       0.00817021       0.02287720
F        1.87972449      -0.34802743      -0.89609621       0.09087258      -0.03910077      -0.03626025
C        0.84361529       1.53274681       0.12718836       0.01725574       0.06225360      -0.01719399
H       -0.05307222      -0.42115795      -0.22561948      -0.04290052       0.04704398       0.03690184
C        1.35302172      -0.51934985       1.34898532       0.00366561      -0.10666422       0.01119191
N        1.68410189      -0.92103423       2.37739277       0.02759532       0.02315239      -0.05712405
C       -0.17315730       1.96379173       1.18872030       0.00080374       0.00926149       0.00529466
H       -1.09050267       1.37423052       1.09308673      -0.01600528       0.02690773      -0.07777633
H        0.25557023       1.80788337       2.18264067      -0.05943848      -0.00303945      -0.02694089
H       -0.41358651       3.02036988       1.07168358      -0.00942178       0.06299379       0.04761628
C        0.57828607       2.12115083      -1.18579208       0.01456243      -0.04622131       0.05873158
N        0.45644081       2.67535452      -2.18851615      -0.05143999      -0.02789042      -0.00523874
