15
Properties=species:S:1:pos:R:3:forces:R:3 Coordinates=T from=T ORCA-job=T run=T Energy:=T 161.8771913=T energy=-36330.62429722412 pbc="F F F"
C        0.91218440      -0.01255186       0.07529007      -0.01431862       0.00894592      -0.03580643
H        1.79522620       1.96026667       0.27674214       0.00631587      -0.02179174       0.00451108
Cl      -2.36207298      -0.35183269      -0.17989531       0.02254034      -0.06492532       0.01310671
Cl       2.27388248      -0.57186846      -0.98160338      -0.01992721       0.05090967      -0.00234053
C        0.81065444       1.51018653       0.12236024      -0.00981616      -0.01753910       0.05083887
H       -0.04520980      -0.41952770      -0.31336456       0.02779103      -0.00284394       0.05233015
C        1.17841678      -0.54838817       1.40314511      -0.00811693      -0.07017374      -0.02708668
N        1.42577837      -0.99063600       2.43933268      -0.04022512       0.10506833      -0.07986696
C       -0.17895929       1.97658244       1.17942960       0.00653542       0.05142084       0.03091854
H       -1.10816330       1.39968658       1.09864960       0.01716716       0.09078744      -0.04815049
H        0.24746962       1.84471555       2.17631004       0.03260382      -0.06255347      -0.02662328
H       -0.37264486       3.03793323       1.03085017      -0.04964210       0.04023214       0.00066803
N        0.39195001       2.07071329      -1.23294496      -0.00152716      -0.04815585       0.04245283
O        0.33111432       3.28404058      -1.29139438       0.05498825       0.00808443       0.06686531
O        0.18477652       1.31653489      -2.14475338      -0.00745282      -0.05038797      -0.04694215
