14
Properties=species:S:1:pos:R:3:forces:R:3 Coordinates=T from=T ORCA-job=T run=T Energy:=T 68.4595158=T energy=-20205.780882254217 pbc="F F F"
C        0.59493717       0.13158354      -0.07765941       0.02558162       0.00186591       0.00982105
H        1.67863466       1.88677969      -0.09863633      -0.00429563       0.02763225      -0.00233100
Cl      -1.18374712      -0.47528101      -0.08160092      -0.03303945      -0.01420194      -0.00919170
H        1.38137495      -1.63860810       0.93188055       0.02057438      -0.01224287       0.03476152
C        0.60762815       1.65083410      -0.05172539      -0.00296036       0.01624869      -0.00669462
H        0.94835995      -0.23950117      -1.04664030      -0.00302565       0.01801757      -0.00194158
C        1.36900216      -0.51267687       1.09783172       0.00365134      -0.01841677      -0.00231681
N        1.90822178       0.10431562       2.02922997      -0.01443662      -0.02259605      -0.01932937
N        0.12920113       2.22668217       1.19561615       0.00073473       0.02268943       0.01265200
H        0.76786888       1.79393005       1.88485015      -0.00093739      -0.03641494      -0.00862044
H       -0.78034700       1.80760327       1.38465588      -0.00199220       0.02741724       0.01410054
N       -0.02447576       2.21779390      -1.23546395      -0.00462068       0.00509638      -0.03334126
H       -0.10855065       3.21375511      -1.04895800       0.00731607       0.00060134       0.00646221
H       -0.97888415       1.86983128      -1.27323924      -0.00298077      -0.02061049       0.01125435
