15
Properties=species:S:1:pos:R:3:forces:R:3 Coordinates=T from=T ORCA-job=T run=T Energy:=T 34.7926170=T energy=-22469.7191392516 pbc="F F F"
C        0.52810568      -0.07731222       0.04346688      -0.00118102      -0.03113882       0.00436702
H        1.43521181       1.47903839      -1.01955513      -0.00580382      -0.01618722       0.00856934
Cl       0.28899088      -1.02327819      -1.49429537       0.00220884       0.00513381      -0.02282762
F        2.96964461       0.16020773       0.93244102       0.00065947       0.00850513       0.00948815
C        0.65078842       1.42472584      -0.24581035       0.01629515       0.00484920       0.00868150
H        1.57156761      -0.32218645       0.46023015      -0.03337357       0.01226641       0.00305247
C       -0.54358459      -0.41797051       0.95182916       0.01336152       0.01441800      -0.01642073
N       -1.39409978      -0.71808908       1.67398781       0.00409843       0.00433707       0.00427909
N        1.07636589       1.99761827       1.02019716       0.02666128       0.02276779       0.00716076
H        1.31920069       2.97094236       0.86441455      -0.00750735       0.00913128       0.00642410
H        1.95293327       1.47500286       1.23811830      -0.00800158      -0.00208627      -0.01027902
C       -0.61539327       2.08218411      -0.76210915      -0.00085448      -0.00527881       0.00097141
H       -0.95007646       1.62428993      -1.69752211      -0.01448096       0.01197587      -0.00291109
H       -1.41732641       2.00783078      -0.02180065       0.01641583      -0.01420467       0.01893944
H       -0.43398568       3.14682616      -0.95234854      -0.00896617      -0.00393650      -0.01646813
