14
Properties=species:S:1:pos:R:3:forces:R:3 Coordinates=T from=T ORCA-job=T run=T Energy:=T 61.9107405=T energy=-33277.7354775571 pbc="F F F"
C        0.20403044      -0.12116188       0.06613296       0.00091724      -0.03382475       0.01157614
H        1.60031865       1.40295519       0.03163868       0.03786988      -0.00749939      -0.00100881
Cl      -1.54466519      -0.48547078      -0.27800697      -0.00417864      -0.01644459      -0.01036269
Cl       3.36680497      -0.00185901      -0.54845419      -0.00507911      -0.00814891      -0.01456825
C        0.49353350       1.38589050       0.06394822       0.01946255       0.01290402       0.00154984
H        0.80920014      -0.59117715      -0.71289290      -0.01603225       0.00241750       0.00424660
C        0.52714370      -0.72823335       1.34735863       0.03418247       0.02024301       0.00224612
N        0.71898747      -1.19225976       2.38381334      -0.01446794      -0.02985306       0.02966676
C       -0.03863180       2.13974699       1.27768152      -0.01761380       0.01208756       0.03053324
H       -1.12228183       2.03974524       1.37748776      -0.01991191      -0.00072561      -0.03081684
H        0.43078016       1.75428682       2.18468503       0.00636166      -0.00107137       0.00519343
H        0.20201869       3.20096871       1.19242427       0.00334461       0.00078472       0.00980021
C        0.03013675       1.99652543      -1.17284931      -0.01771974       0.04204043      -0.01724824
N       -0.33918411       2.53843814      -2.12075398      -0.00830889       0.00623714      -0.02950149
