14
Properties=species:S:1:pos:R:3:forces:R:3 Coordinates=T from=T ORCA-job=T run=T Energy:=T 36.6270338=T energy=-23472.74444719879 pbc="F F F"
C        0.24935270      -0.05826222       0.28013762       0.01331695      -0.02644166      -0.01220393
H        1.56652951       1.55208243       0.46152111       0.01077707      -0.01372944       0.00528616
Cl      -1.47802503      -0.46461271      -0.13158902       0.01043165       0.01422769       0.00464506
F        1.84812490      -0.51848528      -1.68632897      -0.00499434      -0.02665422      -0.01350800
C        0.49487029       1.44646363       0.24794175       0.01006684      -0.02444509      -0.00237447
H        1.18679591      -0.48031485      -0.88359676      -0.03810655       0.01934119       0.00567448
C        0.61462478      -0.69245133       1.49457642      -0.00174121      -0.00580433       0.01054370
N        0.98180457      -1.24856520       2.44672100       0.01186827       0.01733125      -0.00345472
C       -0.20651330       2.21587786       1.28551927      -0.01268471       0.01742872      -0.00173825
N       -0.74498217       2.83383738       2.09855336      -0.01334535      -0.01449268      -0.01987165
C        0.23754369       2.04479369      -1.13746121       0.00283525       0.00324071       0.00029678
H        0.79017039       1.44321858      -1.86026596       0.00213198       0.00939482       0.00073786
H       -0.82567623       2.00667766      -1.38179836       0.00511338       0.01139702      -0.00518772
H        0.57239629       3.08457119      -1.18561456      -0.01481357       0.01206869       0.01130913
