14
Properties=species:S:1:pos:R:3:forces:R:3 Coordinates=T from=T ORCA-job=T run=T Energy:=T 51.9286321=T energy=-90796.12449319166 pbc="F F F"
C        0.23870634      -0.11126273       0.09266984       0.00274684       0.01734663       0.00609920
H        1.61842660       1.42513635       0.05632995      -0.03371090       0.02369776       0.01075762
Br      -1.68121734      -0.52382210      -0.20844593      -0.00795547      -0.01954345      -0.02583691
Cl       3.31352355      -0.13279768      -0.65720833      -0.00717364       0.01627798      -0.01436871
C        0.51170507       1.40030484       0.07587004      -0.01334239       0.00464329      -0.00780735
H        0.80893883      -0.58632928      -0.70888448      -0.00964400      -0.01124923       0.00885368
C        0.60022426      -0.70919854       1.36333830       0.00809454      -0.00470473      -0.01185959
N        0.82254662      -1.16672334       2.39724710      -0.00584449      -0.01670122       0.04341012
C       -0.05987326       2.15575310       1.27340006       0.00601271      -0.00086121      -0.00319931
H       -1.14856959       2.06950003       1.31428453      -0.00280348      -0.00484469      -0.00967987
H        0.35559595       1.75210495       2.19861787       0.01523335       0.00437099       0.00620321
H        0.19611953       3.21502910       1.21337275       0.02840947      -0.00162989      -0.01069542
C        0.05432063       1.99823551      -1.17303167       0.01967621      -0.01805142       0.02056350
N       -0.31398458       2.52529834      -2.12961796      -0.00119627       0.01603625      -0.01215493
