13
Properties=species:S:1:pos:R:3:forces:R:3 Coordinates=T from=T ORCA-job=T run=T Energy:=T 151.0527874=T energy=-15461.806940984849 pbc="F F F"
C        0.84032464      -0.07843092       0.12826680      -0.04370761       0.04351494       0.02422786
H        1.76142895       1.86484132       0.66990268       0.03385747      -0.08223212       0.07708197
F       -1.73587590      -0.01090857      -0.58713410       0.00722228      -0.05276151       0.05516182
H        1.15683589      -0.43268202      -0.84960351      -0.04591234      -0.06025290      -0.04579555
C        0.86689347       1.40578142       0.21587790       0.02081636       0.05965935      -0.00164551
H       -0.85357785      -0.22790699      -0.21630833       0.10058115       0.04892263       0.03018566
C        1.41183670      -0.77493047       1.20935263      -0.05051820      -0.21657796       0.24586784
N        1.81113854      -1.37433115       2.12585943       0.09618971       0.08618901      -0.18603327
N       -0.21288655       1.99971585       1.19063176      -0.07721513       0.08262612      -0.07767395
O       -0.57253683       3.14034797       0.98839573       0.03803243       0.00007652      -0.00470898
O       -0.51962393       1.31659909       2.13073194      -0.04819346      -0.01557272      -0.05382190
C        0.70449898       2.01560413      -1.09396973      -0.10749102       0.14525619      -0.22268519
N        0.62766841       2.46031246      -2.15548619       0.05980983      -0.04245088       0.17489344
