12
Properties=species:S:1:pos:R:3:forces:R:3 Coordinates=T from=T ORCA-job=T run=T Energy:=T 41.0468802=T energy=-150298.94034118063 pbc="F F F"
C        0.92845616      -0.07633451      -0.01800808      -0.01791818       0.00704639       0.03537629
H        1.17041722       1.97688400       0.69805138      -0.01314421       0.00847225      -0.00414959
Br      -2.45195013      -0.07517738       0.36085405       0.00636246      -0.00879128       0.01566501
Br       2.70566880      -0.31627669      -0.86705416       0.00128797      -0.00922805      -0.00984998
C        0.52876860       1.37953492       0.05526430      -0.00702761      -0.00572198       0.01347991
H        0.20213192      -0.63382751      -0.61185930       0.01702247       0.02006734      -0.01112251
H       -0.52563171       1.36637825       0.40387905      -0.01812057       0.00506817       0.01843072
C        1.02755922      -0.62351545       1.32293653       0.00680625      -0.00855681       0.02986645
N        1.18072210      -1.02257833       2.39341044      -0.00708025      -0.00827617      -0.05307166
N        0.49028379       2.04863903      -1.26663930       0.06172452      -0.04580594      -0.02135155
O        0.65930254       3.25241317      -1.25822071      -0.00772966       0.04282749      -0.02720434
O        0.24889782       1.37741188      -2.24360392      -0.01132561      -0.00022735       0.00499161
