13
Properties=species:S:1:pos:R:3:forces:R:3 Coordinates=T from=T ORCA-job=T run=T Energy:=T 93.6756256=T energy=-148750.74591995688 pbc="F F F"
C        0.10847817      -0.15894954       0.20142651      -0.04852786      -0.15823694      -0.02080974
H        1.53837436       1.37739394       0.19918420       0.06805401      -0.07421466       0.08706255
Br      -1.73932071      -0.51946254      -0.37262360       0.02531630      -0.06451415      -0.05648321
Br       3.42196564       0.84201284      -1.34338227      -0.16837753       0.05296764       0.00734710
C        0.43092945       1.35202622       0.15337569       0.11364706      -0.15180525      -0.07477410
H        0.78266231      -0.65312845      -0.51156127      -0.20018223       0.13865158       0.00093755
C        0.25514341      -0.75930945       1.51176390       0.16860266       0.05853742      -0.11785553
N        0.38171619      -1.22379964       2.55745672       0.01982540      -0.09992396       0.15747219
C       -0.08637952       2.02991182       1.33628781      -0.12664379       0.49805967       0.49441001
N       -0.42987410       2.56808208       2.30345162       0.07203022      -0.24402511      -0.61580730
N        0.05080226       1.90911653      -1.11947727       0.13991334       0.38273047      -0.21444732
H        0.90150018       2.13298394      -1.65587113      -0.51633694      -0.05011487       0.39730471
H       -0.60269376       2.68742846      -1.05133931       0.45263426      -0.30677204      -0.03843001
