16
Properties=species:S:1:pos:R:3:forces:R:3 Coordinates=T from=T ORCA-job=T run=T Energy:=T 16.1103625=T energy=-22034.687904057897 pbc="F F F"
C        0.21554585      -0.07062842       0.24281857       0.00639842      -0.03546595       0.01105527
H        1.59792961       1.49566989       0.30593623      -0.01495536       0.00601368      -0.01591437
F       -1.15158998      -0.30292602       0.06250819      -0.02164882      -0.00425623      -0.02214614
Cl       2.76850220      -0.36263716      -1.97487779      -0.00306550      -0.02500153      -0.00998375
C        0.50987329       1.42489750       0.18528187      -0.00417791      -0.03010424       0.00890989
H        0.77853535      -0.57244319      -0.55909744       0.02695631       0.03292949       0.00631176
C        0.58139061      -0.66295935       1.53313939       0.00541115       0.02711388       0.00175508
N        0.85844055      -1.11032661       2.55843434       0.00185269      -0.02018255       0.03104418
C       -0.19744797       2.19696863       1.29299958       0.01046445       0.00331361      -0.00039005
H       -1.28487501       2.11307192       1.19416566       0.02528608      -0.00924389       0.00312922
H        0.08033113       1.83545884       2.28855586      -0.00855921      -0.00122851      -0.01863473
H        0.06189083       3.25861301       1.23986128      -0.01339865       0.01119596      -0.00039931
C        0.15938137       1.94505846      -1.20327083       0.00413559       0.00451932       0.00685759
H        0.73080895       1.39188126      -1.95461402      -0.02028485       0.02229795       0.00570913
H       -0.91289530       1.84035662      -1.40028925       0.01942776      -0.00275202      -0.00811707
H        0.41926511       3.00514107      -1.28659778      -0.00990030       0.01194631       0.00214973
