12
Properties=species:S:1:pos:R:3:forces:R:3 Coordinates=T from=T ORCA-job=T run=T Energy:=T 0.8548848=T energy=-143299.29034644063 pbc="F F F"
C        0.97413874      -0.06700083       0.00960967       0.00859931      -0.00701256      -0.01037564
H        1.65782732       1.84128956       0.76661086      -0.02188506       0.00273691      -0.00963011
Br      -2.58442217       0.08697587       0.04326357      -0.00565269       0.01648961       0.01586845
Br       2.73473158      -0.62223722      -0.79987965      -0.01034689       0.00342579       0.00018713
C        0.91392634       1.43644094       0.07191454      -0.00286684      -0.01529721      -0.00494604
H        0.22882162      -0.44275600      -0.69050038       0.02718870      -0.01316878      -0.01457948
H       -0.09770509       1.68963048       0.40925392       0.01061193       0.02126493      -0.01068581
H        1.06520140       1.88374360      -0.91271705      -0.00194877       0.01780295       0.01483355
C        0.81197133      -0.73834933       1.34779635      -0.00037145       0.00149858      -0.01661282
H        1.55209886      -0.38038372       2.07169088      -0.01916004      -0.00802287      -0.00695300
H       -0.20126431      -0.49860756       1.69046633       0.01010333      -0.02356801       0.01358790
H        0.89224449      -1.82401520       1.26305192      -0.00058177       0.00295646       0.02018595
