16
Properties=species:S:1:pos:R:3:forces:R:3 Coordinates=T from=T ORCA-job=T run=T Energy:=T 78.7383285=T energy=-19335.907494913525 pbc="F F F"
C        0.59504364      -0.10273038       0.12010166      -0.00696278      -0.02158894      -0.00000790
H        1.90992453       1.59144468       0.07590981      -0.03316360       0.05450739      -0.03212973
Cl      -2.65934244      -0.29218908      -1.27464871      -0.02567354       0.00624253      -0.02761128
H        1.16877790      -0.52232353      -0.71745670       0.00175548       0.03215987       0.05507614
C        0.82196561       1.41534194       0.08068661      -0.02915720       0.01333347       0.00575659
H       -0.45715990      -0.32239247      -0.11032768       0.02521885       0.04588903       0.07746794
C        1.03895981      -0.72637380       1.43164218       0.02925157      -0.00141669       0.00319326
H        2.02708169      -0.35656214       1.73288659       0.06421350      -0.08628694       0.01816872
H        0.34622744      -0.48029412       2.24253026       0.00526718      -0.03393752      -0.03580409
H        1.09512854      -1.81564189       1.35092758      -0.03765949       0.00446604       0.04230099
C        0.34923715       2.09620198       1.28852744      -0.06055250       0.09766806       0.09071890
N        0.02057309       2.68477541       2.22670267       0.05336635      -0.13204992      -0.10801005
C        0.18413036       2.04532514      -1.15936195       0.02819698       0.00333582      -0.02721913
H        0.65727357       1.62713341      -2.05345810      -0.03950417       0.01308772       0.00757707
H       -0.88096002       1.78487393      -1.20038426       0.09949580       0.06879470      -0.03495481
H        0.32548628       3.13203151      -1.16731531      -0.07441815      -0.05953691      -0.03145281
