17
Properties=species:S:1:pos:R:3:forces:R:3 Coordinates=T from=T ORCA-job=T run=T Energy:=T 36.2209310=T energy=-78550.29952496054 pbc="F F F"
C        0.84517784      -0.09029533       0.02420485      -0.00960750       0.02429558       0.00106255
H        1.84986211       1.76703512       0.12525047       0.04050610      -0.03715226      -0.00826771
Br      -2.96051413       0.34941314      -0.46935057       0.01785583       0.00475290      -0.01168835
F        1.90606592      -0.48425900      -0.80520731       0.04062053      -0.03350162      -0.02873028
C        0.80465659       1.43325270       0.04165669      -0.01110675       0.04525409      -0.02072285
H       -0.07469152      -0.46305053      -0.43651396      -0.03526267       0.00544232       0.00575773
C        1.04741958      -0.74673885       1.36590500      -0.00839066      -0.01261419       0.01849435
H        1.89888456      -0.31602889       1.90392249       0.02070290      -0.01478935       0.00088670
H        0.14706613      -0.63737721       1.97223713      -0.00336062      -0.00102265       0.05413461
H        1.23076789      -1.81385332       1.22058109       0.01736546      -0.02407414       0.01094867
C        0.01522906       1.99738316       1.22491758       0.00104459       0.00601022       0.01371471
H       -1.01557060       1.62700149       1.20102137       0.00806026       0.04598819      -0.01091257
H        0.46895084       1.75330465       2.19294353       0.00011227      -0.02219262      -0.00180540
H       -0.00936540       3.09145643       1.14747846      -0.04446068      -0.03034273       0.00089580
N        0.29601092       1.86607542      -1.25497678      -0.02501709       0.02441697      -0.04964263
H        0.23586928       2.87961219      -1.26811848      -0.00752210      -0.01634024       0.02989647
H       -0.66692656       1.52794427      -1.32728994      -0.02843241       0.03181502      -0.01107640
