16
Properties=species:S:1:pos:R:3:forces:R:3 Coordinates=T from=T ORCA-job=T run=T Energy:=T 53.2632236=T energy=-21466.779243315337 pbc="F F F"
C        0.51212437      -0.00302664      -0.04388901      -0.01031873      -0.02813597      -0.01963385
H        1.05736591       1.67072919      -1.23211723      -0.00516994       0.00312756       0.04923332
Cl      -0.40976959      -0.74003985      -1.46827959       0.00990191       0.00394838       0.00646608
F        3.01838351       0.05203985       1.00735299      -0.01487042      -0.01632720       0.00177556
C        0.58234194       1.52158148      -0.24342860      -0.00918100      -0.02233365       0.00913065
H        1.54530652      -0.37528464      -0.07245028      -0.00566763       0.00643756      -0.00995161
C       -0.11795538      -0.44425688       1.24919954       0.01208730       0.00360814       0.00822666
H        0.54209338      -0.07395305       2.03440898       0.02643760      -0.01837236       0.02424199
H       -1.12919780      -0.04755093       1.39399969      -0.00029717       0.00363156      -0.02397300
H       -0.15330249      -1.53484041       1.31247484      -0.01119465       0.00457003      -0.01012260
N        1.35199288       2.02743007       0.86622288       0.00353061       0.01580555      -0.03251398
H        1.71215408       2.93897792       0.60838186      -0.00239354       0.03435886       0.00866366
H        2.16305846       1.35115495       1.01143497      -0.04089754       0.00640938      -0.01488521
N       -0.69342360       2.23551262      -0.29771501       0.01454337      -0.00812684      -0.01732107
H       -1.12089960       2.14910838       0.61976849       0.02885969       0.03039057      -0.00560507
H       -1.30536213       1.77715389      -0.96764711       0.00397358      -0.01914532       0.02627036
