17
Properties=species:S:1:pos:R:3:forces:R:3 Coordinates=T from=T ORCA-job=T run=T Energy:=T 37.6184069=T energy=-11225.978665051969 pbc="F F F"
C       -0.02696754      -0.11382655       0.05260923       0.06035197       0.04941130      -0.03188408
H        1.57129014       1.22026050      -0.08879224       0.03544196      -0.02559242       0.02109995
F       -1.44384075      -0.09501094       0.24704382      -0.05674169      -0.05231475      -0.02122111
F        2.92473227       0.72215146       1.13066000      -0.02302807      -0.01232266      -0.02531258
C        0.46974899       1.31015691      -0.06046396       0.01323357       0.06718358      -0.03185365
H        0.10461793      -0.58790551      -0.92688272       0.01027532      -0.00779419      -0.00247098
C        0.64396830      -0.90916265       1.13843699      -0.03473517       0.00486080      -0.01371074
H        1.72733001      -0.64027325       1.11612356      -0.06915781       0.02720341       0.04197670
H        0.27407130      -0.59902193       2.12195677      -0.04699005       0.00943362      -0.03122347
H        0.43242075      -1.97759870       1.01591538       0.07298953      -0.04238336       0.02468338
C        0.17213146       2.10837826       1.20134606       0.03309879      -0.02632663       0.03809296
H       -0.89217005       2.05647718       1.46671080       0.04098082       0.07028682       0.06027634
H        0.80136360       1.71092927       1.99869810       0.06288651       0.01639722       0.03492545
H        0.46041801       3.15863904       1.06316912      -0.05707132      -0.02897181      -0.01976418
N       -0.06405178       1.90117090      -1.29407073      -0.03502443       0.00819138      -0.07527850
H        0.34783300       2.82179458      -1.41229955       0.00991575      -0.02716908       0.03122271
H       -1.06002863       2.06000694      -1.16518081      -0.02924510      -0.02166779       0.00970052
