16
Properties=species:S:1:pos:R:3:forces:R:3 Coordinates=T from=T ORCA-job=T run=T Energy:=T 68.9190660=T energy=-79553.49764377836 pbc="F F F"
C        0.01418360      -0.09274437       0.08601541       0.02152395       0.07752306      -0.05533939
H        1.58894545       1.31239190      -0.04801047      -0.05404065      -0.01915931      -0.06062091
F       -1.38946203      -0.10384353       0.05219690      -0.07785887      -0.04559600       0.03250976
Br       3.83839483       0.08058587      -0.09449078      -0.02088003       0.01241744       0.04461714
C        0.48452536       1.36391286       0.03709557       0.01136776       0.07385556      -0.08154055
H        0.35546880      -0.59664182      -0.82543458      -0.03557616       0.05983499       0.05690780
C        0.48165311      -0.85109440       1.29625198       0.06682988       0.04231149      -0.02440366
H        1.57526838      -0.89859712       1.28653077       0.01467269      -0.03334654      -0.04881960
H        0.15905100      -0.36177453       2.21564743      -0.09886457      -0.01916727       0.10578072
H        0.06240217      -1.85988353       1.27101420       0.04532415      -0.02672901       0.02654640
C        0.10113623       2.19920061       1.26476669       0.04892359      -0.05310378      -0.05008216
H       -0.97499552       2.15130110       1.46510691       0.09220541       0.01601592      -0.04740721
H        0.64359601       1.83932607       2.14192511      -0.01542332       0.01576715      -0.02123000
H        0.38711759       3.24323387       1.10617353      -0.06194444      -0.05183518       0.04519199
C       -0.04897445       1.98726152      -1.17375696       0.01538253      -0.13355615       0.10431232
N       -0.50893027       2.46511597      -2.11728561       0.03355672       0.09123256      -0.02172077
