16
Properties=species:S:1:pos:R:3:forces:R:3 Coordinates=T from=T ORCA-job=T run=T Energy:=T 55.2320113=T energy=-79552.51733405705 pbc="F F F"
C        0.26249459      -0.05968905       0.00867125       0.01805151       0.01654099      -0.02555494
H        2.22677423       1.12107791       0.04823846      -0.03989167       0.01573600       0.00506455
Br      -2.52384576      -1.00421463       0.25159245       0.00057396      -0.01487976      -0.01864431
F        3.11795275       1.22782593       0.32988357       0.03842523      -0.02540692       0.01611400
C        0.25311962       1.30013027      -0.01967575      -0.04076607       0.00824877      -0.01797777
H        0.21932675      -0.58547901      -0.93941781      -0.01385072       0.00543164       0.03416255
C        0.56543383      -0.86405267       1.22857627      -0.00636859       0.00800043      -0.01512235
H        1.64358412      -0.81766818       1.44248250       0.00058609       0.00311300       0.01316565
H        0.01748043      -0.49581712       2.09570712       0.01317374      -0.00722318       0.01690673
H        0.26725939      -1.89884904       1.07670651       0.01271749      -0.01324779       0.01173309
C        0.15750790       2.14846777       1.22270794      -0.00009118      -0.01819608      -0.01642258
H       -0.88253974       2.14695664       1.57019292       0.02011163       0.01948314       0.03215608
H        0.78693110       1.75275202       2.02248938      -0.00365163       0.01186117      -0.01249753
H        0.46171921       3.18098574       1.03646230       0.00327766      -0.03303888      -0.02751725
C        0.06227778       1.96080290      -1.26645931       0.02197192      -0.00742460       0.02068782
N       -0.05064215       2.53231868      -2.26677281      -0.01176072       0.03815996      -0.01944496
