17
Properties=species:S:1:pos:R:3:forces:R:3 Coordinates=T from=T ORCA-job=T run=T Energy:=T 40.4236076=T energy=-18329.291315382565 pbc="F F F"
C        0.59743655      -0.14804463      -0.00032161       0.01933832       0.03077640       0.00538938
H        1.38705061       1.46227803      -1.11386624      -0.01763670      -0.01582229      -0.01874703
Cl       0.05175256      -1.00124327      -1.53564632      -0.01716311       0.00606693      -0.02397764
H        3.54068937       0.41410468       0.75654671       0.01197764       0.00866193       0.00380500
C        0.70740778       1.35725417      -0.24877079      -0.00186747       0.02741727       0.00627662
H        1.62872546      -0.48840945       0.16610381       0.01853479      -0.02687947      -0.00256589
C       -0.30891936      -0.55096826       1.13390568       0.00295909      -0.00009235       0.00877257
H        0.04099304      -0.02943430       2.02697125      -0.00063989       0.01418184       0.02086172
H       -1.35041799      -0.27045571       0.95083961      -0.01620342      -0.01876907      -0.00565009
H       -0.26421439      -1.62918983       1.30439258       0.00064215      -0.02059270       0.00969400
N        1.29143982       1.90336691       0.96921007      -0.00748736       0.00189541       0.02594141
H        1.49210953       2.88661097       0.79921860       0.00758703       0.00166727       0.00413816
H        2.23279394       1.43459150       1.05396432       0.00807852      -0.01846745      -0.01063114
C       -0.60827812       2.04627036      -0.57098373      -0.00816326       0.00557392      -0.01298210
H       -1.08813887       1.60952552      -1.45148345      -0.02123276       0.00557506      -0.01535638
H       -1.29822983       1.98741007       0.27671439       0.01280598      -0.00083836       0.00313631
H       -0.43444218       3.10990579      -0.77220778       0.00630370       0.00233437      -0.01517089
