17
Properties=species:S:1:pos:R:3:forces:R:3 Coordinates=T from=T ORCA-job=T run=T Energy:=T 33.8221703=T energy=-79907.43615926465 pbc="F F F"
C        0.79590396      -0.07653025      -0.06758809      -0.02484939       0.02871448       0.04398368
H        1.94298922       1.74250297       0.14210327       0.02948363       0.01235400       0.01652214
Br      -2.85342963      -0.42644183       0.45715067       0.03168437       0.01067059       0.05947427
H        1.59029366      -0.44172818      -0.72016659       0.06292912       0.06840624      -0.09105698
C        0.88931011       1.44487162       0.05520929      -0.05174098       0.02223518       0.00641868
H       -0.16230710      -0.33775428      -0.53037269      -0.03138567       0.01149096       0.11700238
C        0.87703226      -0.73377795       1.30607436       0.03469655       0.02936592      -0.03620672
H        1.62001025      -0.24562958       1.94513586       0.08392626      -0.04046631       0.07532317
H       -0.09720692      -0.69316126       1.79445642      -0.05342013       0.03556255       0.04217747
H        1.15811005      -1.78415935       1.23021029      -0.01242010      -0.12577671      -0.10324034
C        0.08837575       2.03273967       1.20177008      -0.02103688      -0.02484468      -0.05477919
H       -0.89922036       1.56188327       1.25125535      -0.03938643       0.05542231      -0.03907215
H        0.61893614       1.84140442       2.13984531      -0.07834831      -0.01439715      -0.04269212
H       -0.02373965       3.11064247       1.08752801       0.00970586      -0.00784118      -0.01163509
N        0.50904262       2.09736275      -1.27170679      -0.08931972      -0.02599400      -0.02492674
O       -0.05113240       3.17198632      -1.25589602       0.05917182       0.02649362       0.02820976
O        0.84752115       1.52051189      -2.28412594       0.08049737      -0.05410804       0.00471786
