16
Properties=species:S:1:pos:R:3:forces:R:3 Coordinates=T from=T ORCA-job=T run=T Energy:=T 49.5879386=T energy=-83042.85256016569 pbc="F F F"
C        0.44890114       0.12398653      -0.00810649      -0.06062669       0.02050439      -0.03745376
H        1.43898481       1.98401638       0.04300497       0.00761332       0.04520910      -0.00544588
F       -0.90051311      -0.27473492      -0.18441722      -0.03660490      -0.06441439       0.04145787
Br       3.09665751      -2.77742174      -0.17980921      -0.03858071      -0.02621942      -0.00810385
C        0.40040529       1.65675936       0.10686975       0.01941603       0.03802095      -0.05146870
H        0.97774495      -0.14892762      -0.92532896       0.01025748       0.02673968       0.04458913
N        1.07983007      -0.47128056       1.08506002      -0.09368154       0.09473175       0.00893059
H        1.61726301      -1.30341585       0.79801463       0.03437419      -0.04771415       0.09994124
H        0.44592600      -0.67483568       1.84829099       0.05476257       0.05702352      -0.11079559
C       -0.28926902       2.21220462       1.32829693       0.02506035      -0.01922427      -0.06165217
H       -1.34723296       1.94473547       1.32551710       0.06431763      -0.01098585       0.08184589
H        0.20309756       1.81728483       2.22167363      -0.05350697      -0.04489249      -0.07280581
H       -0.20564174       3.30246236       1.34966545      -0.07342742      -0.04924953       0.02099353
N       -0.23022578       2.19391031      -1.16185316       0.09958849       0.04725126       0.00114263
O       -1.29536605       2.77246028      -1.10076118       0.03509921      -0.06286951       0.08737978
O        0.39436984       2.00215252      -2.18400930      -0.00967037      -0.00944835      -0.02905634
