13
Properties=species:S:1:pos:R:3:forces:R:3 Coordinates=T from=T ORCA-job=T run=T Energy:=T 24.6647232=T energy=-11951.255496162239 pbc="F F F"
C        0.84065200       0.11605788      -0.20339028      -0.01001167       0.01147293      -0.00000391
H        0.07761414       0.70943318       1.66578688       0.02260787       0.01565245      -0.00517783
F       -0.29418178      -0.58026886       2.43765558       0.00850235      -0.02042587      -0.00695320
H        1.44064111       0.45219896      -1.06354587      -0.00320033       0.01099879      -0.00396755
C        0.67245826       1.22401595       0.81734886      -0.00156721       0.00823695       0.00424343
H       -0.15947851      -0.13934087      -0.57980939      -0.01200845      -0.01137627       0.00665535
H        1.62453243       1.56724080       1.22035534      -0.02189116       0.02377883       0.01552760
N        1.51274811      -0.97443988       0.49801948       0.00411422       0.00407968       0.00346789
H        1.41697306      -1.81677359      -0.05977621      -0.00398078      -0.01023641      -0.00742394
H        0.92491841      -1.10361657       1.34764407       0.00101628      -0.01501128       0.00699036
N       -0.04107525       2.39827714       0.33336776       0.00455307      -0.00567204      -0.00923909
O       -0.89604038       2.26138735      -0.53143023       0.01648829      -0.02224330      -0.01370109
O        0.21165785       3.47771971       0.85337782       0.00805961       0.00158163       0.00348362
