15
Properties=species:S:1:pos:R:3:forces:R:3 Coordinates=T from=T ORCA-job=T run=T Energy:=T 58.3109746=T energy=-12666.014118896413 pbc="F F F"
C       -0.01064082      -0.11986163       0.13744531      -0.00012873       0.00022053       0.00220107
H        1.61638841       1.14663079       0.09320006      -0.01258330      -0.00184602       0.00244616
F       -1.41577868      -0.13417596       0.29367013       0.00788133       0.00324027      -0.00544128
F        2.88230856       0.07054619       0.27057143       0.01110298      -0.00466896       0.01556597
C        0.49860843       1.31565164       0.04022938      -0.00632295      -0.00104506       0.01339563
H        0.14724971      -0.59120247      -0.84772548      -0.00968786       0.01959627      -0.00551992
N        0.61900526      -0.77821495       1.21822427       0.00438669       0.00807068      -0.00943952
H        1.64457736      -0.56484010       1.05534437       0.00202451      -0.00740975      -0.00661152
H        0.49006512      -1.77964474       1.11655262      -0.00554118       0.01436769       0.00071162
C        0.07490639       2.11657932       1.17513329       0.01331202      -0.01020749      -0.01833818
N       -0.24995695       2.82633233       2.02665090      -0.01310779       0.00686946       0.01387213
C        0.09507529       1.99582604      -1.26558423      -0.00465343      -0.00713387       0.00185163
H        0.55438059       1.47584665      -2.11097836       0.01977461      -0.01723066       0.01113947
H       -0.99051703       1.99036189      -1.40519380      -0.01398258      -0.00451062       0.01713339
H        0.43607650       3.03420024      -1.28612045       0.00109183      -0.00333516      -0.01762586
