13
Properties=species:S:1:pos:R:3:forces:R:3 Coordinates=T from=T ORCA-job=T run=T Energy:=T 14.2640532=T energy=-77917.69525808858 pbc="F F F"
C        0.35665461      -0.17150054       0.10580024      -0.03179628       0.02847202       0.00111174
H        1.59613936       1.53468625       0.28075588      -0.00249420      -0.01754485       0.00907376
Br      -3.09554330       0.94900786      -0.42833082       0.02556182      -0.01713759      -0.00161618
F        3.54460938      -0.06804074       1.31544762       0.02642051       0.02711766       0.00035226
C        0.55031676       1.30537829       0.05526482      -0.00010174       0.02631104      -0.02285147
H       -0.62662590      -0.50833958      -0.24162587       0.00197496      -0.03682021      -0.00355873
H       -0.08605537       1.72036050       0.85860232       0.04778446       0.00003182      -0.00427608
N        1.25072815      -0.95763611       0.55508642      -0.02218089      -0.00905151      -0.00840989
H        2.69821995      -0.44972016       1.04032487      -0.03409559       0.00027444       0.00186145
H        0.94993861      -1.92887108       0.54404467      -0.01644385      -0.00586600      -0.00269605
N        0.18178775       1.78557036      -1.27452332      -0.00299185       0.00938103       0.02779759
H        0.33828291       2.78784298      -1.29717424      -0.02450093      -0.01116501      -0.00625794
H       -0.83331330       1.66286154      -1.35437317       0.02286234       0.00514401       0.00486616
