15
Properties=species:S:1:pos:R:3:forces:R:3 Coordinates=T from=T ORCA-job=T run=T Energy:=T 59.9335893=T energy=-150800.9331261767 pbc="F F F"
C        0.20510275      -0.00959079      -0.24386847       0.03870918       0.04492918       0.02745219
H        1.50925726       1.54552319      -0.65701119       0.01052926       0.05957262      -0.04603247
Br      -1.58769569      -0.39030500       0.35822319      -0.11080977      -0.13430102      -0.00187819
Br       2.71442862      -0.17798429       2.27254190       0.00144328      -0.03981835      -0.02235062
C        0.48632456       1.48875368      -0.26597049       0.05670171       0.03335829      -0.01022311
H        0.89938169      -0.49773155       0.45763597       0.04199130       0.00613784       0.06750665
N        0.46881757      -0.65928499      -1.58925114      -0.04795379       0.18817094      -0.05567769
O        1.36308108      -0.17652084      -2.25213584       0.00056982      -0.03121861       0.15576349
O       -0.16473372      -1.64063792      -1.89202207      -0.04524469      -0.07813128      -0.04094117
N        0.36699372       1.99633721       1.09293555      -0.03034041       0.02483653      -0.08831708
H        0.80947144       2.91035841       1.11072762      -0.00968583      -0.01330998       0.01328276
H        0.93646913       1.40986130       1.71833710      -0.01218724       0.04362381      -0.08801911
N       -0.38997736       2.16650402      -1.20663597       0.03309497      -0.04328239       0.02540166
H        0.02910086       3.04150203      -1.49894580      -0.00180586      -0.05001742       0.05015404
H       -1.25368310       2.38955283      -0.72037292       0.06794889      -0.02629430       0.01303374
