16
Properties=species:S:1:pos:R:3:forces:R:3 Coordinates=T from=T ORCA-job=T run=T Energy:=T 50.2267129=T energy=-92846.08816229008 pbc="F F F"
C        0.25836028      -0.03990336      -0.22314825       0.01837563      -0.02393603      -0.05769196
H        1.46189685       1.59998668      -0.55652394      -0.02378166       0.04326042       0.00878819
Br      -1.53779580      -0.57220417       0.29632189       0.01253620      -0.06203771      -0.01736861
Cl       2.69675129      -0.45423021       1.96167937      -0.00804247      -0.02863609      -0.00124892
C        0.42450712       1.47040664      -0.23607219      -0.00814343      -0.01743556      -0.01169340
H        0.97358596      -0.49278588       0.49511069      -0.00424112       0.03293358       0.01737177
N        0.60211867      -0.62523291      -1.58002742      -0.02229792       0.05087644      -0.06384232
O        1.53442000      -0.09706663      -2.14910138      -0.02175572      -0.05180841       0.07181327
O        0.00098852      -1.59189401      -1.98612547       0.00416535       0.02961570       0.05874023
C        0.26659742       2.05402714       1.16146329       0.01083987      -0.01950092      -0.03269528
H       -0.76680174       1.92935261       1.50602060       0.05292456       0.06068580       0.03020626
H        0.94173106       1.55757078       1.86709026      -0.01271889       0.03374892      -0.03643602
H        0.49726354       3.12533118       1.12753539      -0.00611822      -0.03810354       0.04273046
N       -0.44622204       2.06460784      -1.24996247       0.01946635       0.02734650       0.03123495
H       -0.04632759       2.94204690      -1.55788101       0.00002324       0.00990084       0.01297464
H       -1.33876552       2.28514637      -0.82039961      -0.01634518      -0.03507204      -0.06149914
