12
Properties=species:S:1:pos:R:3:forces:R:3 Coordinates=T from=T ORCA-job=T run=T Energy:=T 164.9169644=T energy=-35261.29813165999 pbc="F F F"
C        1.08173658      -0.04935847       0.03933914      -0.02075037      -0.00702930      -0.02041873
H        1.80371597       1.97199151       0.17713515      -0.00527489      -0.00465073       0.01918197
Cl      -1.94006411       0.18622664      -0.11297273      -0.00779549       0.00584760       0.01071349
Cl       2.91077256      -0.38978915       0.01525038      -0.02531688       0.03271935      -0.00790032
C        0.85624386       1.45201613       0.02797002       0.00538955      -0.01653118       0.00244906
H        0.13676199       1.72117785       0.79709768      -0.00354090      -0.01757697      -0.01821262
H        0.42616125       1.73138898      -0.93166785       0.02720285      -0.01639143       0.00040828
N        0.63960741      -0.76520753      -1.26452724       0.03316488      -0.00188052       0.00953050
O        0.67602664      -0.10509040      -2.27192576      -0.01095211       0.00473815      -0.01063742
O        0.44840473      -1.94940480      -1.17987307      -0.01883666       0.01684918       0.00518145
C        0.58459775      -0.76176755       1.20566718       0.02706028       0.00726769      -0.01102991
N        0.40719225      -1.29867971       2.21016756      -0.01022152      -0.00086191       0.00594210
