18
Properties=species:S:1:pos:R:3:forces:R:3 Coordinates=T from=T ORCA-job=T run=T Energy:=T 52.4948097=T energy=-27594.517245040683 pbc="F F F"
C        1.03346915       0.01923351       0.07682445       0.02409436       0.00319162       0.11252531
H        1.80613738       1.88089331      -0.37117504       0.03288207      -0.01025340       0.02069691
Cl      -2.39076805      -0.39709039      -0.53547519       0.02783931      -0.00662829       0.00635829
F        2.36119525      -0.13849709       0.47988235      -0.07555127      -0.01030241       0.00134198
C        0.80712519       1.52847694      -0.09083924       0.00531259       0.01713289       0.02241148
N        1.02951456      -0.79986805      -1.22489759       0.01284452      -0.01042693       0.04322705
O        1.49291777      -0.24417668      -2.19732743      -0.03074659      -0.03032590       0.06485658
O        0.70294775      -1.95155029      -1.13972147       0.03163163      -0.04665414      -0.08287916
C        0.24077889      -0.65363374       1.11509848      -0.02657342      -0.02335522      -0.03248530
N       -0.12251620      -1.10387736       2.11204577       0.07311602      -0.01771314      -0.06661610
C        0.42963683       2.11399031       1.27068645      -0.03005215       0.01458713       0.01525780
H       -0.56433185       1.76496486       1.56130414      -0.03130143       0.04772904      -0.02699970
H        1.12746364       1.82918528       2.06384951       0.04174631       0.03005079      -0.05724060
H        0.40060505       3.20579240       1.20485390       0.05081099      -0.02777802       0.01218994
C       -0.17068365       1.99055108      -1.16276169      -0.03307857       0.04237325      -0.00927063
H        0.15874477       1.68960306      -2.15773782      -0.05289844       0.00286152       0.02952802
H       -1.17448209       1.59145875      -0.98802578       0.05681242       0.01449377      -0.02938218
H       -0.19200888       3.08595567      -1.12925564      -0.03577893       0.00314974      -0.02389593
