17
Properties=species:S:1:pos:R:3:forces:R:3 Coordinates=T from=T ORCA-job=T run=T Energy:=T 52.1956432=T energy=-37834.660261762576 pbc="F F F"
C        0.00758791      -0.08913361      -0.07615065      -0.00645076      -0.00852594      -0.00287851
H        1.44433268       1.40147577      -0.27889003       0.04877404      -0.02259506       0.06723248
Cl      -1.76705903      -0.32674481      -0.33975893      -0.01666831       0.00345117      -0.00052028
Cl       3.38186217       0.33800501       0.65241841      -0.04104072       0.04010996       0.00100680
C        0.36636356       1.41037441      -0.07890508       0.01521267      -0.02965510      -0.00715848
N        0.68976427      -0.83485855      -1.27197233       0.05018275       0.01031696       0.00036426
O        1.26633657      -0.16838873      -2.08202619      -0.07173339       0.06695267      -0.04635157
O        0.54678234      -2.03270129      -1.28598449      -0.03512806      -0.03822564       0.04341023
C        0.31950737      -0.82669672       1.14216256       0.00986926       0.01991180      -0.02054197
N        0.38866552      -1.42200987       2.12592556      -0.00439874       0.02402411      -0.00514789
C        0.16340904       2.03778570       1.29219386      -0.01252780       0.00971638      -0.02052030
H       -0.88177794       1.98915386       1.62102532      -0.00863684      -0.05459643       0.00280294
H        0.80948525       1.57029369       2.03891213      -0.03026738      -0.00708265      -0.03851745
H        0.44550157       3.09135346       1.22359752       0.02194658       0.02402996       0.01327883
N       -0.33542869       2.07810150      -1.16247999       0.08139112       0.08925732       0.00459878
H        0.29318526       2.73011695      -1.61455383      -0.05504834      -0.09777094       0.01414595
H       -1.12975936       2.59953766      -0.81009413       0.04145026      -0.03336897       0.00153331
