18
Properties=species:S:1:pos:R:3:forces:R:3 Coordinates=T from=T ORCA-job=T run=T Energy:=T 172.5109593=T energy=-27595.117083292967 pbc="F F F"
C        1.16511015      -0.06373093       0.01339947      -0.07029569       0.05523834       0.01278327
H        1.83106962       1.87408997      -0.32429913      -0.03656577       0.13146273      -0.07105968
Cl      -2.90244073       0.08781435       1.02622363       0.13298765       0.02698957       0.08871058
F        2.53723520      -0.13703320       0.23403463       0.00844643      -0.09396256       0.10926145
C        0.85261955       1.44518020      -0.08557147       0.00249966       0.09527391      -0.02302452
N        1.06115054      -0.74295484      -1.37208738      -0.01262654      -0.01613236      -0.01801526
O        1.39592306      -0.06577237      -2.31871459       0.10380024      -0.06389792       0.03443354
O        0.74726934      -1.90673521      -1.41151237      -0.02830807       0.02871829       0.07322087
C        0.45284084      -0.81401696       1.08695884       0.00427363      -0.01563121       0.01232058
H        0.74691373      -0.33989234       2.02453669      -0.03780399      -0.11872228       0.08843026
H       -0.64761242      -0.74306644       1.01740671       0.10431429       0.00243823      -0.15987662
H        0.78657656      -1.84878840       1.10637704      -0.04406459      -0.09423923      -0.10409635
C        0.33999592       2.02542266       1.23833094       0.04892174      -0.01596846       0.04867908
H       -0.63743296       1.59132589       1.48382625      -0.03838570       0.23442531      -0.07745967
H        1.03282504       1.81215943       2.05480384       0.12354123      -0.04403821      -0.02886601
H        0.27938036       3.11380301       1.15077098      -0.19649813      -0.08228657      -0.01530244
C       -0.03164354       1.87068142      -1.16870936       0.07326605      -0.07275185       0.15755968
N       -0.67550522       2.34264435      -1.99667703      -0.12092843       0.05442381      -0.12134648
