17
Properties=species:S:1:pos:R:3:forces:R:3 Coordinates=T from=T ORCA-job=T run=T Energy:=T 53.6130344=T energy=-92410.04208316244 pbc="F F F"
C        0.01936564      -0.08523382       0.01510411       0.01289907      -0.02190912       0.00239434
H        1.65065591       1.21298814      -0.02858650       0.00259040       0.01662939      -0.03974958
Br      -1.99306819      -0.09096043      -0.03607463       0.00643688      -0.00645115       0.00620288
Cl       3.74660293       0.55448223       1.09183011      -0.00960937      -0.00876990       0.02231411
C        0.55216712       1.32451376      -0.00044935      -0.01849004      -0.02865097      -0.00786643
H        0.22449382       1.81745087      -0.91603737      -0.01143280       0.00966762       0.00053681
N        0.35790290      -0.77975739      -1.32627151       0.00838840       0.00014122      -0.02855376
O        0.44723662      -0.08175729      -2.30855020      -0.01835670       0.03690956      -0.02148530
O        0.48839744      -1.98128377      -1.31269682       0.00194407      -0.02476304       0.02898685
C        0.49721756      -0.93240706       1.15571288      -0.00206955      -0.00348781       0.00810908
H        1.59610409      -0.89913499       1.15895159       0.02436455       0.01275992       0.00800147
H        0.15383494      -0.50244974       2.09658956      -0.03582235       0.01420416       0.00560766
H        0.14071023      -1.95648293       1.07104313       0.00122038      -0.00986194      -0.00175244
C        0.20520646       2.14196323       1.23223791       0.01427782       0.00979075      -0.01555522
H       -0.87143256       2.16492968       1.43058526       0.01197104      -0.01391003       0.00879671
H        0.73415140       1.76808651       2.11129807      -0.00993513      -0.00851438      -0.00604061
H        0.53953267       3.16982035       1.07750406       0.02206932       0.03191189       0.01842229
