15
Properties=species:S:1:pos:R:3:forces:R:3 Coordinates=T from=T ORCA-job=T run=T Energy:=T 188.5289938=T energy=-26527.02397171273 pbc="F F F"
C        0.07815430      -0.12235161      -0.07901212      -0.04291128       0.01696009      -0.10539573
H        1.64609501       1.32484713      -0.23448506       0.06184256       0.02960628       0.05150492
F       -1.28655455      -0.18755685      -0.26725524      -0.07038843      -0.01863794      -0.02204029
Cl       3.56678400       0.81607915       1.14790363      -0.03325129      -0.01291557      -0.01588308
C        0.54611955       1.31682566      -0.16102429       0.01650528      -0.03791627      -0.05226361
H        0.33765135       1.78833009       0.80362227      -0.02221891       0.00584709      -0.02643889
N        0.61684110      -0.92169393      -1.30388402      -0.02132374      -0.03235173      -0.00546221
O        0.91403936      -0.29776515      -2.29326910       0.03147389       0.08810881       0.05264256
O        0.63508451      -2.12682634      -1.20311519      -0.06098160      -0.03154506       0.06619880
C        0.44751275      -0.82112789       1.19094677       0.01212769       0.04029065      -0.12761244
H        0.09894623      -1.85183337       1.13878468       0.04756184      -0.00547070       0.06878033
H        1.52937364      -0.76440857       1.33796378       0.08864233       0.00517627       0.03766661
H       -0.03888366      -0.30003319       2.01742309      -0.02438307      -0.02894677       0.02516479
C       -0.09191610       2.09348983      -1.21010130       0.00565499      -0.04764663       0.01918875
N       -0.61177014       2.74384675      -2.00668390       0.00275204       0.04544116       0.01517782
