15
Properties=species:S:1:pos:R:3:forces:R:3 Coordinates=T from=T ORCA-job=T run=T Energy:=T 79.8005993=T energy=-17511.345838062865 pbc="F F F"
C       -0.25649635      -0.30222589      -0.64833122      -0.30657393      -0.28137808       0.01519890
H        0.60577249       0.98956782      -2.14823080      -0.04136776       0.25614034       0.02584395
F       -1.38228113      -0.84080861      -1.34388513      -0.07585084       0.23028342      -0.21049847
H        3.89072139       1.91198655       1.20945220      -0.15159676      -0.03575617      -0.09147501
C        0.20761249       0.98001805      -1.14543589       0.16307020      -0.02320682      -0.10258844
H        3.24500295       1.85503903       0.83186458       0.13308360       0.05060217       0.08471940
N        0.75646696      -1.46523418      -1.22991205      -0.11683067      -0.35874565       0.37916946
O        0.96193417      -1.53338418      -2.42262366       0.05037309       0.34650154       0.34647750
O        1.17193831      -2.28015997      -0.41827115       0.01603059       0.32396092      -0.15075004
N       -0.49523182      -0.46779615       0.70467620       0.53162949       0.16782709       0.08787773
H       -0.10109894       0.30707564       1.24468024      -0.26189085      -0.30675986      -0.21724493
H       -0.26830342      -1.40025321       1.03392348       0.04840197       0.23508932      -0.13801567
N        0.19243191       2.15690349      -0.45820999      -0.16130611       0.01225525      -0.29677784
O       -0.29583819       2.19095160       0.70713889       0.38310169       0.16350239      -0.04964302
O        0.63848091       3.20166595      -1.00004263      -0.20758582      -0.77206117       0.31300595
