17
Properties=species:S:1:pos:R:3:forces:R:3 Coordinates=T from=T ORCA-job=T run=T Energy:=T 80.0434905=T energy=-21716.308867043426 pbc="F F F"
C        0.09501739      -0.08427842      -0.02369840       0.06118003      -0.02093200       0.01189435
H        1.52803603       1.49538552      -0.34012572      -0.05218897      -0.02799798      -0.00409902
F       -1.31686013      -0.18370659      -0.13698798      -0.05383854      -0.00113547       0.05728941
F        3.12918196      -0.12084176       1.09055141       0.02511221       0.01613419       0.04188272
C        0.45495135       1.39565874      -0.18810899      -0.04115397       0.01687776       0.01342169
N        0.49601461      -0.80767639      -1.42890317       0.03164338      -0.05356142       0.06365430
O        1.38346160      -0.32277468      -2.09842368       0.05489922       0.03120267      -0.00177983
O       -0.00787300      -1.89430499      -1.63611344      -0.02235812       0.04764525       0.00000354
N        0.65354360      -0.64606665       1.03647882       0.03816547      -0.09566254       0.01415841
H        2.16417209      -0.34538872       1.15324706      -0.03731312       0.01368578      -0.07738649
H        0.38073504      -1.62019373       1.10752200      -0.03124313      -0.02442779      -0.06698282
N        0.19882938       2.03093224       1.20339706       0.01889645       0.06513334      -0.00617949
O        1.13654943       2.17964716       1.94679916       0.01399099       0.03466920      -0.03468645
O       -0.94342913       2.38234558       1.43218277      -0.01664149       0.02577860       0.02520335
N       -0.32308345       2.02210987      -1.18760301       0.00363587       0.03180390      -0.02958383
H       -0.07799900       2.99616934      -1.29498512       0.05037273       0.01957026      -0.00181219
H       -1.30088997       1.95877106      -0.93542836      -0.00154888      -0.05724532      -0.00108866
