14
Properties=species:S:1:pos:R:3:forces:R:3 Coordinates=T from=T ORCA-job=T run=T Energy:=T 93.6834149=T energy=-90229.42829383112 pbc="F F F"
C        0.86666556       0.02379877      -0.09084250      -0.01130357      -0.00508676      -0.02849289
H        1.74376125       1.92087016      -0.58460119      -0.02449329       0.00776397       0.01184535
Br      -2.73264120      -0.24028941       0.15488752       0.01563199       0.01566451      -0.00072004
Cl       2.09688915      -0.55066720       1.11557642      -0.00840703      -0.00866034      -0.00458103
C        0.80218607       1.55944299      -0.13234879       0.01141630      -0.02072573      -0.00831485
H       -0.11672884      -0.35832717       0.22925802       0.00277171      -0.00684907       0.01000306
C        1.24232068      -0.52159003      -1.38365386       0.00399701      -0.01485102      -0.00376671
N        1.59363407      -0.96209450      -2.38885569      -0.00931181      -0.00187719      -0.01408044
N        0.60669254       2.05992511       1.22465747       0.01086509       0.00779513      -0.03066105
H        0.37766797       3.04440449       1.16515943      -0.01816956       0.00834428       0.04374046
H        1.46086118       1.96743609       1.76407637      -0.01912759       0.04070430       0.00150610
N       -0.26942501       1.86423970      -1.03126670       0.02040941      -0.00193198      -0.00471928
H       -0.36210911       2.86107603      -1.17429795      -0.00095325       0.01507164      -0.00562518
H       -1.15608739       1.47430730      -0.68977303       0.02201718      -0.01661795       0.02292161
