16
Properties=species:S:1:pos:R:3:forces:R:3 Coordinates=T from=T ORCA-job=T run=T Energy:=T 28.0703523=T energy=-12229.203698221005 pbc="F F F"
C        0.33187768      -0.06163336      -0.18508341       0.00965498      -0.00716047      -0.00056633
H        1.61958936       1.55221546      -0.40386131      -0.00184753       0.02795280      -0.00984541
F       -1.02279451      -0.34672107       0.09049133       0.01514074      -0.00706529      -0.02199836
F        1.99039876      -0.20225837       1.80926715      -0.01003424      -0.00598823       0.00713222
C        0.54132470       1.44892313      -0.22863629       0.00469489      -0.01117296      -0.01178074
H        1.02192472      -0.40260035       0.68990106      -0.00067730      -0.00211883      -0.00145872
C        0.66583509      -0.71179032      -1.44303434       0.00144325      -0.01132611       0.01346815
N        0.96894447      -1.24159436      -2.42579721      -0.01254911       0.01697440       0.01914878
C        0.25832618       2.01476038       1.15912732       0.01048800      -0.01328387      -0.01169389
H       -0.80247330       1.91110182       1.41448144       0.00930275       0.02199434      -0.01346465
H        0.86783301       1.42512349       1.85720060       0.01198010       0.00511893       0.00672795
H        0.52450365       3.07813663       1.20617243      -0.01373086      -0.01148195       0.01743626
C       -0.24227536       2.13920850      -1.33703959      -0.00722172      -0.00130983       0.00379013
H        0.02857125       1.75176650      -2.32529717      -0.00429363       0.02505054      -0.00249192
H       -1.31701547       1.98116077      -1.20162012      -0.00500840      -0.00901747       0.01276969
H       -0.06262321       3.22033716      -1.33237746       0.00196594      -0.00262806      -0.01279212
