13
Properties=species:S:1:pos:R:3:forces:R:3 Coordinates=T from=T ORCA-job=T run=T Energy:=T 57.8103977=T energy=-148750.67744625188 pbc="F F F"
C        0.20100349      -0.07738270      -0.14394937      -0.01406185       0.00204566      -0.00076402
H        1.61462543       1.44077642      -0.19866284       0.01371236      -0.01323473       0.00790902
Br      -1.72481592      -0.39048381       0.24263379       0.02092691      -0.04046957      -0.00571191
Br       3.37052034      -0.12197740       0.90311496      -0.00567799       0.00008716       0.00622087
C        0.51596295       1.41834627      -0.11590907      -0.00652344       0.01571674      -0.02999132
H        0.78901657      -0.57272245       0.63611291      -0.01655934      -0.01427782       0.00696848
C        0.48574066      -0.68034067      -1.43174597      -0.00423582       0.03520112      -0.00056581
N        0.67462746      -1.19263701      -2.44614500      -0.00051805      -0.00036193       0.00901805
C        0.17683637       1.99836936       1.19477092      -0.00290319      -0.01852098      -0.00010329
N       -0.13348050       2.54413170       2.16183308       0.00680280       0.03309964       0.00483073
N       -0.09676464       2.11890671      -1.22418025      -0.01396269       0.01475739      -0.04111889
H        0.27817728       3.05506131      -1.29394570       0.03318301       0.00940916       0.00863819
H       -1.09841822       2.19523547      -1.09234810      -0.01526794      -0.01891860       0.03617551
