15
Properties=species:S:1:pos:R:3:forces:R:3 Coordinates=T from=T ORCA-job=T run=T Energy:=T 76.9882116=T energy=-14022.871298511991 pbc="F F F"
C        0.70652680      -0.06909695      -0.13897056      -0.00503042      -0.00378026       0.00923141
H        1.66624115       1.85617767      -0.59403842      -0.00632348       0.00270389      -0.00528092
F       -1.69014077       0.16070122       0.63720719      -0.00025146      -0.00117195       0.01992628
H        1.20362230      -0.39548042       0.78089437      -0.00682303       0.00975242       0.00261552
C        0.73521580       1.45052532      -0.17556482       0.00910308      -0.00800416       0.01490079
H       -0.45652806      -0.25382220       0.07333248       0.01262096      -0.00957010      -0.00062501
C        1.32143560      -0.75078885      -1.24423098       0.01169831      -0.01833293      -0.04388128
N        1.83245366      -1.34421010      -2.09773456      -0.02348669       0.03426346       0.02646248
C        0.44195889       2.02148294       1.19689578       0.00151062       0.00836464      -0.00802093
H       -0.49657015       1.55223317       1.51695939       0.02044324      -0.00596070      -0.02124913
H        1.25637343       1.75730431       1.88032290      -0.01673115      -0.00348541      -0.01560527
H        0.34994338       3.10666126       1.16161831      -0.02778491       0.00291259       0.00710074
N       -0.29988980       1.96518252      -1.17434490       0.00894406      -0.02641462       0.02536955
O       -0.72266686       3.09332741      -1.01053697       0.01619647       0.00546473      -0.01521723
O       -0.56004331       1.26577243      -2.12371835       0.00624835       0.02022477      -0.00399059
