13
Properties=species:S:1:pos:R:3:forces:R:3 Coordinates=T from=T ORCA-job=T run=T Energy:=T 91.5668250=T energy=-18161.347853443945 pbc="F F F"
C       -0.07825842      -0.10249188      -0.06004838      -0.00604188      -0.02761854       0.00414843
H        2.07866981       1.03668378      -0.01785911      -0.00736172      -0.01021389      -0.01755362
F       -1.45604568      -0.39905531       0.01322147       0.00071682       0.01995052      -0.03683044
F        2.93152293       0.64551019       0.13504971       0.00026147       0.01927514       0.01035624
C        0.23536092       1.33782121      -0.07541697      -0.02505042      -0.01302975      -0.01148975
H        0.36820123      -0.54209374       0.83374579       0.00447666       0.01496013       0.03247510
C        0.43789285      -0.79858928      -1.24313812       0.01964973      -0.00117717      -0.02024320
N        0.82887588      -1.38436489      -2.15438739      -0.02281555      -0.00162122       0.01166840
N        0.11868503       1.99664748       1.17582384       0.03938860      -0.01334314       0.01399102
O        0.10967837       3.22147766       1.19057234      -0.01543358       0.00365823       0.02972354
O        0.07939816       1.30748494       2.19558527       0.01865685       0.01113773       0.01920597
C       -0.02797698       2.12449176      -1.21617852       0.01104448      -0.00309208      -0.00873202
N       -0.21209588       2.72928462      -2.18739219      -0.01185692       0.00776563      -0.02409316
