16
Properties=species:S:1:pos:R:3:forces:R:3 Coordinates=T from=T ORCA-job=T run=T Energy:=T 146.7839672=T energy=-9530.746604427415 pbc="F F F"
C        0.79634299      -0.03895534      -0.10188473       0.02156266       0.02655335      -0.08394491
H        1.81754943       1.86655684      -0.41370744       0.00847929       0.00963755       0.00062871
F       -1.79093681       0.14703218       0.57006520       0.00045328       0.00729758      -0.02046627
H        1.41218270      -0.40889612       0.72890155      -0.05189096       0.02717500       0.00063794
C        0.81038829       1.50173042      -0.15982387      -0.00379570       0.04459434      -0.01515066
H       -0.30438259      -0.26834781       0.12176898      -0.03037025      -0.03275486       0.07024338
C        1.25489694      -0.67566029      -1.31576112       0.01395363      -0.03072195       0.00067676
N        1.61521941      -1.19598540      -2.28596104      -0.01180423       0.04663578       0.05306038
C        0.37509393       2.02477051       1.20475911       0.01672495      -0.01091773       0.03286646
H       -0.58635356       1.53580110       1.42168775       0.01881480      -0.00030083      -0.02170906
H        1.10424154       1.78323120       1.98802916       0.00863054      -0.00735816       0.03513241
H        0.24833971       3.11494920       1.18007609       0.01215137      -0.02945760       0.04098859
C       -0.20244641       1.96139524      -1.20226380      -0.00882746      -0.00547980      -0.04111108
H        0.06495885       1.60282678      -2.20108111      -0.03776770      -0.01248142      -0.06994765
H       -1.16462333       1.52814390      -0.89603805       0.02554083      -0.00077380      -0.01688512
H       -0.27120283       3.05651597      -1.24182367       0.00172172      -0.03213118       0.01771163
