15
Properties=species:S:1:pos:R:3:forces:R:3 Coordinates=T from=T ORCA-job=T run=T Energy:=T 82.8601576=T energy=-22470.75088190587 pbc="F F F"
C        0.21563556      -0.05031009      -0.21424689       0.00908456       0.03506372      -0.00783068
H        1.53423005       1.56058484      -0.40587331       0.00284396      -0.01292919       0.01957928
F       -1.13203810      -0.30091052       0.08686120       0.02515847      -0.00190320       0.02022628
Cl       3.04973185      -0.01999173       1.70390248      -0.01555983      -0.02588028       0.01315059
C        0.46564412       1.44869586      -0.19520449      -0.00634611       0.02788363      -0.00785385
H        0.85622550      -0.51392022       0.54893180      -0.00571502      -0.02576505      -0.03001244
C        0.47751807      -0.65712100      -1.52152437      -0.00248905      -0.00192902      -0.02491130
N        0.66792203      -1.17131495      -2.53465914       0.01174909      -0.00356052       0.02262866
C        0.19038290       1.99216149       1.20249973       0.01078990       0.01792404       0.00774596
H       -0.85726384       1.83480707       1.48183389       0.01146637      -0.00086934      -0.00041759
H        0.84746209       1.50347822       1.92666579       0.01083204      -0.01545737       0.01509041
H        0.39647673       3.06687618       1.23245345      -0.01032573       0.02521212      -0.02321113
N       -0.29476011       2.08216092      -1.26986157      -0.01547312      -0.00353267      -0.02467613
H       -0.05720106       3.06637747      -1.30959040       0.00685430      -0.00344126       0.01654057
H       -1.28135518       2.03433311      -1.03903164      -0.02663438      -0.01083174      -0.00286527
