13
Properties=species:S:1:pos:R:3:forces:R:3 Coordinates=T from=T ORCA-job=T run=T Energy:=T 32.1752406=T energy=-30770.015261266646 pbc="F F F"
C        0.79562417      -0.05497534      -0.27298297      -0.07607856      -0.10420569      -0.00992643
H        0.80101564       1.82110135       0.67154003      -0.02505710       0.03631800      -0.02453361
Cl      -0.85952469      -0.43582236       2.51542775       0.00883295      -0.01366661      -0.00250076
Cl       2.61742766      -0.13064132      -0.29492520      -0.02288430      -0.01711935       0.02955767
C        0.31098701       1.38504710      -0.20328361       0.03526667      -0.03187322       0.03022345
H        0.45495435      -0.56686363       0.64919660       0.02775597       0.05500822      -0.04399883
H       -0.75152992       1.33932315       0.06377901       0.06242190      -0.06040564      -0.04986635
C        0.32674528      -0.74669670      -1.46341656       0.03379360       0.02690497       0.05800414
N       -0.04837903      -1.25804450      -2.42679394      -0.04076607      -0.03901445       0.00490187
C        0.55876915       2.18972143      -1.46508048      -0.00699280       0.01758094      -0.01000624
H        1.61846384       2.18212721      -1.73788605      -0.00421259       0.05470846       0.00924625
H       -0.00238634       1.78503639      -2.31341199       0.00384836       0.00720788       0.01385731
H        0.25017237       3.22808456      -1.32718237      -0.00080964       0.06553191      -0.00578854
