12
Properties=species:S:1:pos:R:3:forces:R:3 Coordinates=T from=T ORCA-job=T run=T Energy:=T 30.3042158=T energy=-35262.10851844844 pbc="F F F"
C        0.28317631      -0.08782699      -0.22624506       0.00224918       0.00994183      -0.02734158
H        1.78597068       1.36209696      -0.64503707      -0.02767930       0.01864319      -0.02510671
Cl      -1.41573037      -0.17747024       0.38182593      -0.00642322      -0.01625991       0.02563043
Cl       2.98289112      -0.08708742       1.47900202      -0.00124218      -0.01034094       0.02898651
C        0.75475796       1.34588852      -0.28523025      -0.01801801       0.03368249      -0.00028705
H        0.95036616      -0.53843751       0.53412430       0.01234534       0.00445304      -0.03883807
H        0.73790741       1.78091078       0.70819695      -0.01736949       0.01935091       0.02912461
C        0.38724856      -0.83666587      -1.46558365      -0.00661140      -0.02802273      -0.00753551
N        0.49052950      -1.48526085      -2.41220469      -0.00138272      -0.00286584       0.01529521
N       -0.07442508       2.21284004      -1.18022541       0.03673507       0.00511558      -0.00300756
O       -0.45841148       3.27099162      -0.72836467       0.03087895      -0.01158061       0.01451313
O       -0.28263038       1.81636895      -2.30656078      -0.00974834      -0.00732465      -0.02724065
