13
Properties=species:S:1:pos:R:3:forces:R:3 Coordinates=T from=T ORCA-job=T run=T Energy:=T 89.1456602=T energy=-78725.99013583045 pbc="F F F"
C        0.77475915      -0.08877576       0.01943408       4.48807568       0.09942360      -0.99456955
H        1.70280071       1.42975332      -0.29422564       1.74110962       2.46363010       0.35963252
Br      -2.05380007      -0.64188941       0.07677331      -0.53282546       0.24778541      -0.02559123
H        2.00024567       0.04197822       0.06209103      -1.26628129      -1.60260687       0.22210762
C        0.69405575       1.41393047      -0.00899138       0.88319387       1.73104266      -0.74831464
H        0.54104524       1.87257228       0.91022539      -0.05725782      -0.16738811       2.57813964
C        0.79970283      -0.70959741      -1.26250044      -1.84946932      -0.32651098       1.55344788
N        0.56315244      -1.32011397      -2.19267315       0.52104918      -0.91067581      -2.19639135
C        0.76763288      -0.78506813       1.23599187      -2.12438624      -1.22604157       2.39005670
N        0.74010394      -1.20665767       2.32149696       0.63716436       0.29489027      -1.10807506
N        0.13044550       2.25146050      -0.96729900      -1.65079097       0.53461852      -2.52676678
H        0.54186615       3.16123107      -1.20272430      -0.23714873      -1.26347175       0.40960178
H       -0.75913276       2.03498925      -1.35988194      -0.54675991       0.12776105       0.07571070
