13
Properties=species:S:1:pos:R:3:forces:R:3 Coordinates=T from=T ORCA-job=T run=T Energy:=T 172.9966480=T energy=-27965.144229684083 pbc="F F F"
C        0.04597571      -0.00811202       0.02212073      -0.00923532       0.01578596      -0.02643311
H        1.72036089       1.29690394      -0.28038437      -0.00050072      -0.04702430       0.04011212
F       -1.34264888       0.08874807       0.10653422       0.00432050      -0.05150897      -0.01423754
Cl       3.44706724       0.14980210      -0.10417395       0.05758955       0.02626086       0.00919107
C        0.61753162       1.39398929      -0.10463069       0.04095522      -0.04135630      -0.00840246
H        0.43518658       1.95578970       0.80641379      -0.02092566       0.06334526       0.01815466
C        0.35334556      -0.91601401      -1.09535398      -0.01283830      -0.06265392      -0.05136641
N        0.48135732      -1.70092731      -1.92632778      -0.02517976       0.01070327       0.03036822
C        0.48680221      -0.62668827       1.28685464      -0.02170907       0.03656409      -0.06032225
N        0.65053947      -1.11838258       2.31382564       0.01279711       0.01346910       0.03391086
N        0.00614612       2.14144404      -1.21965316       0.01253780      -0.02327940       0.00056065
O       -0.12399126       3.33850731      -1.06260758       0.01081928       0.03969089       0.02641047
O       -0.27327262       1.53241532      -2.23092837      -0.04509587       0.00179803      -0.01321900
