14
Properties=species:S:1:pos:R:3:forces:R:3 Coordinates=T from=T ORCA-job=T run=T Energy:=T 50.6086697=T energy=-90795.45263527878 pbc="F F F"
C        0.91646411      -0.05201686      -0.06583906       0.02273514       0.01057587      -0.01334636
H        1.32203497       1.92437022       0.61152078       0.00072967      -0.01070572      -0.00239002
Cl      -2.14907917      -0.19323565       0.62177240       0.01526374      -0.00626485       0.00011940
Br       2.90163922      -0.14037468      -0.61493991      -0.01172213       0.00972622       0.00405891
C        0.55018076       1.43772829       0.00847173       0.00255738       0.00251801      -0.01845483
H       -0.40030242       1.46623249       0.54893342       0.01003708       0.00801625      -0.01201112
C        0.25538555      -0.81524724      -1.11823359      -0.01630200       0.01124932      -0.00694831
N       -0.07071145      -1.39561617      -2.06016787      -0.00274258      -0.00923287       0.01692372
C        0.90228808      -0.70500983       1.23626206      -0.01248999      -0.01167550       0.00572745
N        1.05155628      -1.18258004       2.27453961       0.00071883       0.00513328      -0.00706294
C        0.39275220       2.09193636      -1.35014155      -0.00249424       0.00082984      -0.00284067
H        1.28487606       1.98418242      -1.97448868       0.00129606      -0.00143919       0.02050958
H       -0.45823128       1.65622912      -1.87861842       0.00047565       0.00630369      -0.00896612
H        0.19507314       3.16015936      -1.22374204       0.00064732      -0.01218459       0.01088650
