18
Properties=species:S:1:pos:R:3:forces:R:3 Coordinates=T from=T ORCA-job=T run=T Energy:=T 64.9227911=T energy=-81057.83764111578 pbc="F F F"
C        1.21533664      -0.00021917       0.16246582      -0.00246832      -0.00295231      -0.02211327
H        1.81630214       1.76750552      -0.84922725      -0.01969837      -0.01442704       0.03133401
Br      -3.05414786      -0.77291909      -0.88590613       0.00013788       0.02765178       0.02301737
F        2.47295592      -0.12170329       0.80459962      -0.03520602      -0.01635014       0.01924652
C        1.03915074       1.50686083      -0.10781793      -0.01661049      -0.01034242      -0.00377623
C        1.38179506      -0.72112940      -1.11120932       0.03036793       0.01642759      -0.01504997
N        1.58158146      -1.27082504      -2.10333368       0.00370814       0.00730770       0.01883864
C        0.15165738      -0.62689144       1.02832808       0.00059897       0.01285125      -0.01063093
H        0.00043825       0.00278927       1.90669634       0.02425923       0.00036645      -0.00587602
H       -0.79757315      -0.72477280       0.47864996       0.00770228       0.01043373       0.02536820
H        0.48135024      -1.62102472       1.34051996      -0.01319915       0.00901476      -0.02207538
N        1.23440187       2.19826545       1.16142528      -0.00040648      -0.01528036      -0.02263087
H        1.06687932       3.18799155       1.02669744       0.01098630      -0.01265886       0.01712004
H        2.19191446       2.07766445       1.46865982      -0.01788950       0.04061227      -0.01411011
C       -0.32633028       1.84672372      -0.67603945      -0.00061602      -0.00939920      -0.01065176
H       -0.61787691       1.20439320      -1.50950590       0.02187762      -0.00488904      -0.00552546
H       -1.10533657       1.72754625       0.07891661       0.00483117      -0.02365783      -0.01224535
H       -0.33089488       2.88664148      -1.02291732      -0.00433342      -0.00864270       0.00230986
