18
Properties=species:S:1:pos:R:3:forces:R:3 Coordinates=T from=T ORCA-job=T run=T Energy:=T 98.7810425=T energy=-13734.244552661065 pbc="F F F"
C        0.39202515      -0.09030736      -0.47830120      -0.05516545      -0.00286118      -0.04479298
H        0.83576913       1.68843582      -1.54801973      -0.09074712      -0.04913864       0.02549470
F       -0.48444227      -0.45795113      -1.53034899      -0.05843204      -0.01060783      -0.06737688
F        1.94155741       0.31752539       2.37975273      -0.05076854       0.01699624      -0.04220941
C        0.53965995       1.45419064      -0.51352639      -0.01099692       0.07417198       0.03908772
C        1.69516810      -0.67737374      -0.83198987      -0.03611746       0.08194719       0.10056663
N        2.71829516      -1.10380064      -1.14267516       0.11229336      -0.11672041      -0.13344528
C       -0.11097425      -0.64972268       0.82415446      -0.01977461      -0.01051031       0.05669073
H        0.67883008      -0.44113783       1.60284973      -0.14735244      -0.04283651      -0.00205427
H       -1.04562790      -0.14400360       1.09465785       0.08370937      -0.09366369      -0.01909008
H       -0.31172964      -1.72259589       0.70916030       0.08411238       0.09407283       0.03565184
N        1.54594518       1.96101239       0.38896290       0.28182820       0.04676656      -0.03154815
H        2.46354858       1.88075549      -0.04461604      -0.19933855      -0.03432693      -0.00081801
H        1.64033506       1.36325744       1.26534011      -0.04771010       0.09310003       0.09903211
C       -0.80670603       2.12812033      -0.24859650      -0.05883285       0.02120940      -0.00581114
H       -1.62467143       1.70103362      -0.83817956       0.06594289      -0.08175989      -0.01914637
H       -1.07430416       2.06945313       0.80972842       0.07396509      -0.01222582       0.00488820
H       -0.72637837       3.18794824      -0.50094964       0.07172755       0.03100601       0.02777737
