16
Properties=species:S:1:pos:R:3:forces:R:3 Coordinates=T from=T ORCA-job=T run=T Energy:=T 104.3207729=T energy=-9530.174758905001 pbc="F F F"
C        0.98799489      -0.12293887      -0.14197845       0.01980213      -0.01824159       0.06952356
H        1.40968464       1.84356061       0.56888811       0.01206441      -0.00534949       0.05268377
F       -1.66145405       0.24048800       1.05604471      -0.01668839       0.05177649      -0.01167890
H        2.00772554      -0.23136324      -0.55020201      -0.01546017       0.00913376       0.01086858
C        0.62344802       1.36610968      -0.03186530       0.01578205      -0.01408916       0.00961884
H       -0.33233309       1.34416995       0.52766989      -0.07550673       0.02192938       0.02055009
C        0.12571425      -0.80931092      -1.10599477      -0.00551839      -0.01360798      -0.01509754
N       -0.44092175      -1.37530853      -1.93761367       0.00445966      -0.00859018       0.00558305
C        0.86571532      -0.78288138       1.23802094       0.03328510      -0.01926958      -0.03093513
H        1.54664580      -0.28994124       1.94397112       0.01518349       0.00836337      -0.04709543
H       -0.19434971      -0.60019421       1.52318054       0.01552439      -0.00487959       0.01438101
H        1.11330579      -1.85002167       1.20602722      -0.00324963      -0.00215977      -0.02081191
C        0.47499506       2.08364372      -1.36073487       0.02894427       0.00353200       0.00148943
H        1.33857390       1.94019964      -2.02520020       0.00862676      -0.01106046      -0.01168604
H       -0.41458052       1.72388513      -1.88417777       0.00272109       0.00223643      -0.04469118
H        0.35761229       3.16272735      -1.20908681      -0.03180372      -0.00720010      -0.00363372
