16
Properties=species:S:1:pos:R:3:forces:R:3 Coordinates=T from=T ORCA-job=T run=T Energy:=T 196.3384169=T energy=-24977.19064108175 pbc="F F F"
C        0.18311285      -0.14439288      -0.13069648       0.01072783       0.01351038      -0.01163801
H        1.30315084       1.52384603      -0.88838103      -0.01281935      -0.01452768       0.00320182
Cl      -1.46883801      -0.52592574      -0.87592130      -0.00926228       0.00765096      -0.00105345
F        2.73736474       0.31908790       0.79513243       0.00777391       0.00914957       0.01086197
C        0.46903079       1.41387765      -0.17993812       0.00386367       0.00164623       0.00239183
C        1.12844637      -0.85930685      -0.99150833      -0.01985174      -0.01978922       0.00484519
N        1.74604883      -1.49490394      -1.72898874       0.00251579       0.02868055      -0.00859368
C        0.19824354      -0.72832277       1.26932705       0.00438215       0.00869424      -0.01808437
H        1.23244952      -0.60308723       1.60825646      -0.01390328      -0.01254106       0.01415661
H       -0.49139312      -0.17853427       1.90904990       0.00802778      -0.00730886      -0.01203118
H       -0.07947186      -1.78359944       1.22020853       0.01198127       0.00630151       0.02704124
N        0.81106176       1.90427626       1.14347637       0.00030128       0.00178048       0.00635851
H        0.98675671       2.90151681       1.06561065      -0.01306621      -0.00752773      -0.01308057
H        1.74251502       1.41410754       1.27080622      -0.00356321      -0.00921044       0.00490404
C       -0.64504774       2.20691170      -0.71193894       0.00760806      -0.00542193       0.00347959
N       -1.44356447       2.93890745      -1.10835331       0.01776329      -0.00884678      -0.01343016
