16
Properties=species:S:1:pos:R:3:forces:R:3 Coordinates=T from=T ORCA-job=T run=T Energy:=T 195.2313715=T energy=-24978.58164908906 pbc="F F F"
C        0.01127562      -0.15351535      -0.00323123      -0.13491757      -0.01025216      -0.05038217
H        1.53908560       1.31609215       0.04989877       0.25121759      -0.00864849       0.01975375
F       -1.39247583      -0.19821983      -0.01668423      -0.14980406      -0.06194795       0.05163943
Cl       3.63691437       1.10607843       0.62341456       0.00205982      -0.01268615      -0.00494120
C        0.43232674       1.31092695       0.00035966       0.02996933       0.08601488      -0.10681284
C        0.41232368      -0.79500233      -1.26755507       0.11625023      -0.00855109      -0.00723709
N        0.66763012      -1.37768928      -2.22744826       0.00629399       0.02188040       0.06476018
C        0.53444930      -0.88538473       1.20917340       0.10822668      -0.00592213       0.07204040
H        0.55057075      -1.96380709       1.04970181      -0.07804105      -0.01614969       0.06799099
H        1.55113721      -0.52748973       1.41051628       0.03473259      -0.13559267       0.01250681
H       -0.11086018      -0.63994431       2.05752757       0.07249004      -0.03816783      -0.03101390
C       -0.04416400       1.96367974       1.22430310      -0.30457729       0.05415470       0.19481239
N       -0.48479397       2.50216965       2.14683187       0.12840496      -0.04905310      -0.17375405
N        0.00162185       1.95813305      -1.21187464      -0.03873501       0.11879871      -0.17740954
H        0.59738013       2.74522043      -1.43313703      -0.13153330      -0.01262723       0.07187874
H       -0.96757032       2.24456903      -1.16920621       0.08580556       0.08159058      -0.00735348
