15
Properties=species:S:1:pos:R:3:forces:R:3 Coordinates=T from=T ORCA-job=T run=T Energy:=T 128.5701442=T energy=-79987.64709933136 pbc="F F F"
C        1.04956311       0.00675128       0.01459681      -0.01974775       0.01597942      -0.01167742
H        1.50697220       2.07847868       0.39884713       0.03273573       0.00491742      -0.01225283
F       -1.46118905       0.11056270      -0.22059795      -0.00915382       0.00382125      -0.03287424
Br       3.12725672      -0.06481390      -0.13932569      -0.03265391      -0.00937573       0.01117567
C        0.64627833       1.48956441       0.06798714       0.01335736      -0.00065946      -0.00491989
H       -0.14313478       1.52980144       0.82554877       0.01800016      -0.00664237       0.03807054
C        0.62164051      -0.72455295      -1.17513913       0.00563480       0.00778476       0.00687712
N        0.48026062      -1.40120427      -2.10063880       0.01225718       0.02011721       0.01724470
C        0.69664309      -0.73734133       1.28555181       0.00897048       0.00496715      -0.00896663
H        1.08974681      -1.75422554       1.27993744       0.00975239      -0.03153252      -0.00473098
H        1.09216128      -0.20435648       2.15368783       0.00676127       0.01230149       0.02317061
H       -0.39847075      -0.73596927       1.28065913      -0.01171563       0.00952293      -0.02133534
N        0.17257144       1.94566067      -1.22233635       0.01150045      -0.00398924      -0.04716535
H       -0.01715995       2.94053157      -1.16604917      -0.02057164      -0.00066354       0.02003794
H       -0.72798109       1.45213978      -1.28578031      -0.02218412      -0.02886144       0.02285513
