14
Properties=species:S:1:pos:R:3:forces:R:3 Coordinates=T from=T ORCA-job=T run=T Energy:=T 77.4139861=T energy=-26962.464826778152 pbc="F F F"
C        0.40514753      -0.23519448      -0.08520732      -0.07644047       0.00013934       0.03343638
H        1.77029747       1.37935148       0.05474591       0.03535533       0.00223504       0.03419148
Cl      -2.19335603       0.09743761       0.05212616       0.01691219       0.04859397      -0.01762018
F        3.02559106       0.04678198       1.80559419      -0.02010212       0.04486438      -0.00148730
C        0.69224710       1.24167193      -0.06742857       0.01720253      -0.01099336      -0.00646569
H        0.34302509       1.74071571      -0.96298375      -0.03723914      -0.01934348      -0.05016726
C        0.00791150      -0.75806475      -1.37079455       0.00941391       0.02124634      -0.07271784
N       -0.05287985      -1.18122177      -2.44486203      -0.01058118      -0.08587577      -0.02482097
N        0.89163735      -0.97970601       0.83829266       0.00625791       0.00780472       0.00686952
H        2.17517380      -0.37294074       1.61909030       0.00005779      -0.01176513       0.02130768
H        0.68813073      -1.96157454       0.68700900       0.04160702      -0.04919077      -0.02702916
N        0.09463181       2.01476575       1.07374789       0.00011902      -0.02824532      -0.00095758
O       -0.18740929       3.16477823       0.80461281      -0.01924025       0.03063682       0.07606348
O        0.01870724       1.49822706       2.15562918       0.05910969       0.04341009       0.03117702
