16
Properties=species:S:1:pos:R:3:forces:R:3 Coordinates=T from=T ORCA-job=T run=T Energy:=T 226.1014452=T energy=-24978.724180409678 pbc="F F F"
C        1.27697203       0.03244230      -0.03389258       0.01495513      -0.16953767       0.08658013
H        1.75220383       2.06987603      -0.13573914      -0.01087382       0.04192710      -0.11088239
Cl      -2.45436712      -0.64036278       1.70641847       0.03613165       0.03337076      -0.02856494
F        2.64194394       0.08809326       0.38228041      -0.05399152       0.07340890       0.01533819
C        0.80902946       1.51641920      -0.08077605       0.03943996      -0.09394507       0.02253246
C        1.39221414      -0.57244863      -1.39087890       0.07284083      -0.06072341      -0.18225132
N        1.47398181      -1.09624030      -2.41654007      -0.01244213       0.08629000       0.22943278
N        0.56632700      -0.73127769       0.87578893      -0.16630627      -0.21473748       0.04598814
H        0.71855608      -1.72742399       0.80567101       0.07092294       0.06821725      -0.11371093
H       -0.44455343      -0.56316563       1.05587513       0.10035742       0.09093475      -0.02507269
C        0.05450692       1.94973916       1.17314767      -0.01675300       0.02529674       0.04051366
H       -0.88957777       1.40911973       1.28204136      -0.04120764       0.08432453       0.04320420
H        0.66098631       1.75744442       2.05793459       0.03504997      -0.04994699       0.00371825
H       -0.14734672       3.02020881       1.11633212      -0.05015000       0.06431406      -0.00554633
C        0.06947165       1.84441106      -1.29379143       0.03075284      -0.02081353      -0.03711129
N       -0.46900476       2.14469607      -2.26671542      -0.07698479       0.05915730       0.00200347
