16
Properties=species:S:1:pos:R:3:forces:R:3 Coordinates=T from=T ORCA-job=T run=T Energy:=T 90.6097998=T energy=-22277.116513555724 pbc="F F F"
C        0.23893940      -0.09478151       0.07923014      -0.09138245      -0.08296681      -0.01575221
H        1.63134140       1.44615834       0.15595206       0.03881061       0.06305440       0.00357420
Cl      -1.54033942      -0.37410166      -0.05788416       0.04922537       0.00505353      -0.01023048
H        2.12323477      -0.59058312      -0.79709966       0.02153716      -0.00877497      -0.00271877
C        0.53153807       1.41343217       0.08734135       0.00534373      -0.09904672       0.00069984
C        1.01095761      -0.77625090      -1.13052077      -0.04801441       0.09448166       0.06469379
N        0.60916238      -1.36121733      -2.11936862       0.04910561      -0.02167083      -0.05462412
N        0.66265566      -0.64589788       1.36034061      -0.06689762       0.00161445      -0.01851787
H        1.68279665      -0.69891496       1.29478668      -0.01754534      -0.03344791      -0.01984032
H        0.34758661      -1.61404044       1.35829892       0.06541207       0.01585581       0.04003285
C        0.00050253       2.08566075       1.26676857      -0.09123058       0.11651001       0.06918369
N       -0.45004650       2.68227508       2.14798084       0.09101801      -0.05637291      -0.06458737
C        0.10682191       2.12751066      -1.19438273       0.01561139      -0.02545273      -0.00282932
H        0.57782479       1.63284809      -2.04444564       0.00422600      -0.02786493      -0.01901788
H       -0.97379497       2.06511254      -1.33163165      -0.00325045       0.04271949       0.04253787
H        0.40693479       3.17826075      -1.16803352      -0.01740215       0.01044347      -0.01546016
