17
Properties=species:S:1:pos:R:3:forces:R:3 Coordinates=T from=T ORCA-job=T run=T Energy:=T 37.5991385=T energy=-30835.868016023804 pbc="F F F"
C        0.17954966      -0.07882780      -0.14923199      -0.02116591      -0.03480180       0.00320232
H        1.53019092       1.44699378      -0.50687151      -0.01923311       0.01256567      -0.02338294
Cl      -1.60824144      -0.42296271       0.10293412       0.03355150       0.00128323       0.01277124
Cl       3.27864930       0.31207496       1.42552158      -0.00127965      -0.00303088       0.00781387
C        0.47435855       1.41859856      -0.18831404      -0.00636611      -0.02544859       0.01962273
H        0.66367611      -0.48945116       0.73684530       0.01349810       0.02753446      -0.00198865
C        0.64339129      -0.83043445      -1.37423457       0.00671435       0.00001544      -0.00848698
H        0.12621474      -0.49127376      -2.27677403       0.01966537      -0.02468553      -0.01930493
H        1.71932542      -0.67055785      -1.48876943       0.00700544       0.00179791       0.01346042
H        0.47410980      -1.90366810      -1.25923571      -0.03326158       0.02415691      -0.01990998
N        0.33306438       1.96539847       1.15483998       0.00909061       0.00569867       0.02628292
H        0.58426469       2.94932214       1.11803130      -0.01888963      -0.00361720      -0.02687009
H        1.08500704       1.53311081       1.69790595      -0.00334765       0.00548810       0.01213277
C       -0.37582300       2.19586493      -1.17832290       0.01143468       0.00019573      -0.00030608
H       -0.25005510       1.82326241      -2.19913882      -0.03446533      -0.01662232      -0.00825378
H       -1.43330949       2.13714291      -0.90809553       0.01686463       0.02462069      -0.00132579
H       -0.08282772       3.25142241      -1.18302164       0.01942133       0.00649216       0.01873354
