16
Properties=species:S:1:pos:R:3:forces:R:3 Coordinates=T from=T ORCA-job=T run=T Energy:=T 23.4888027=T energy=-19335.934084434502 pbc="F F F"
C        0.71298861      -0.04549445      -0.16146892      -0.01668108      -0.01513094      -0.01212375
H        1.69157306       1.85809747      -0.41611160       0.01065571       0.01510803       0.00425249
Cl      -2.15106834      -0.62812290       1.99833589       0.02521490       0.01342865      -0.00439898
H        1.41169768      -0.32551080       0.63611164      -0.00016113       0.00801153      -0.02065576
C        0.67799196       1.48931063      -0.19556111       0.00465770       0.00479473       0.01351764
H       -0.26541059      -0.40701681       0.17553439      -0.02798928      -0.02909399      -0.00638174
C        1.13444588      -0.68109191      -1.47560514       0.01777944      -0.00291339      -0.02538807
H        0.42946549      -0.45207365      -2.27996477      -0.04043726       0.00832833       0.01763844
H        2.12147242      -0.33379134      -1.80445508       0.04316407       0.00896212       0.01164253
H        1.18217752      -1.76970792      -1.38515741      -0.01225691      -0.00765892       0.02721839
C        0.20551439       2.06699693       1.14176240      -0.02274084       0.01733688       0.00509578
H       -0.75994127       1.63506669       1.42173363      -0.00107244      -0.03128179       0.00672586
H        0.91806175       1.79913902       1.92759789      -0.00147707      -0.00855186      -0.03405865
H        0.13004067       3.15683117       1.09952865       0.00139758       0.02896407       0.00850807
C       -0.14819845       1.98532202      -1.29762697       0.00059914      -0.01631682      -0.01167833
N       -0.76501954       2.39018104      -2.18489468       0.01817432       0.00467421       0.01711972
