14
Properties=species:S:1:pos:R:3:forces:R:3 Coordinates=T from=T ORCA-job=T run=T Energy:=T 125.5152269=T energy=-148314.3278513032 pbc="F F F"
C        0.92306425      -0.03845702      -0.05659314      -0.01939472       0.01340709       0.00676772
H        1.64664053       1.94242356      -0.44280793       0.02731104       0.01273824       0.01718761
Br      -2.29365454      -0.53904794       0.42312333      -0.00189540      -0.01353465      -0.01157121
Br       2.69079308      -0.31397820       0.81637616      -0.01370190       0.03447925      -0.02852860
C        0.69662954       1.48849441      -0.12929788       0.00381694       0.02184490      -0.00453178
H        0.18374184      -0.48084076       0.61326017      -0.02928138      -0.03493680      -0.01749054
C        0.89057433      -0.70362769      -1.40780867       0.01166773       0.00230919       0.01742272
H       -0.15130071      -0.70538845      -1.74139447       0.00162962      -0.00433767      -0.00170369
H        1.51640764      -0.19303225      -2.14582751       0.02918916       0.00307002       0.01315422
H        1.22134001      -1.73843539      -1.32069856      -0.01613131      -0.03370749      -0.00746808
C        0.36821451       2.08113176       1.16772548       0.02359542       0.00362172       0.03754775
N        0.18736032       2.59577936       2.18088870       0.01359740       0.01820119      -0.00726261
C       -0.26141240       1.90917601      -1.15694792      -0.00213041      -0.04256621      -0.01711668
N       -0.86218315       2.33238237      -2.04347951      -0.01876626       0.01440467       0.00181167
