17
Properties=species:S:1:pos:R:3:forces:R:3 Coordinates=T from=T ORCA-job=T run=T Energy:=T 58.9595018=T energy=-92410.1845867924 pbc="F F F"
C        0.87335726       0.00499839      -0.00474821      -0.00742760      -0.00074200      -0.01529089
H        1.86277997       1.88776595      -0.34261403       0.01455743       0.01326794       0.00509074
Br      -2.61684011      -0.70615746      -0.20413677      -0.00847047       0.01222214      -0.01229144
Cl       2.40851495      -0.54256463       0.81860255      -0.00281818       0.02527041       0.00136428
C        0.84667126       1.53303493      -0.14440087       0.00475702      -0.01876334      -0.02033441
H        0.04111387      -0.32535989       0.62185713       0.01437861      -0.03798055      -0.00207262
C        0.79269807      -0.70726076      -1.33749819       0.01147263       0.00200862      -0.00056536
H       -0.21377416      -0.58580740      -1.74530219       0.01465310      -0.00441930       0.02011128
H        1.55086131      -0.34202108      -2.03873648       0.00656361      -0.01855440      -0.00629802
H        0.94941661      -1.77525335      -1.18068456      -0.01763592       0.00351372      -0.00668959
N        0.51614504       2.17939705       1.20020464      -0.01100146      -0.02329874       0.00030581
O       -0.41316266       2.95300263       1.25057307       0.02722932       0.01740932       0.00299972
O        1.23470780       1.89894036       2.13529567      -0.01987402       0.03449474      -0.00806654
C       -0.12690279       2.01479328      -1.20146810      -0.00910163      -0.01603141       0.01242910
H        0.24611639       1.72307948      -2.18608849      -0.02503246       0.01317434       0.01339068
H       -1.11122228       1.56203123      -1.04924815      -0.02090762       0.00299471      -0.00142446
H       -0.22227745       3.10117231      -1.17463435       0.03715364      -0.02187027       0.01915762
