13
Properties=species:S:1:pos:R:3:forces:R:3 Coordinates=T from=T ORCA-job=T run=T Energy:=T 43.1134672=T energy=-20965.284174439115 pbc="F F F"
C        0.43000155      -0.00834102      -0.07689186       0.01922492      -0.09728955      -0.04902574
H        2.28378056       1.28334516      -0.18269753       0.01532304      -0.03470484      -0.01612587
Cl      -1.97101355      -1.08904244       0.60896402       0.09612345      -0.03163454       0.03339293
F        3.22600495       1.25961715      -0.19377587       0.01839427      -0.00037149       0.00623081
C        0.33650387       1.34973020      -0.08310919      -0.00576244      -0.04602255       0.02023116
H        0.67499110      -0.48847163       0.86282264      -0.05389244       0.07535945       0.02446840
H        0.30857503       1.86534141       0.86957264      -0.07646619       0.15185730       0.00073314
C        0.55291430      -0.84636172      -1.29761788      -0.00444935      -0.07361633      -0.11821609
H       -0.07322901      -0.46819335      -2.10447115      -0.08132873       0.00131391      -0.05265149
H        1.59102124      -0.83842917      -1.65351374       0.09728573       0.08294319       0.05640681
H        0.27349864      -1.87579735      -1.08657182      -0.09723579       0.00356131       0.01764946
C       -0.00194435       2.10511546      -1.23530573       0.03883805       0.00987017       0.01998447
N       -0.25786223       2.74389215      -2.16791806       0.03170310      -0.03339895       0.05616925
