15
Properties=species:S:1:pos:R:3:forces:R:3 Coordinates=T from=T ORCA-job=T run=T Energy:=T 90.8700847=T energy=-79988.15742541832 pbc="F F F"
C        0.86834853       0.00077848      -0.04277329       0.01545401      -0.01679404      -0.00824128
H        1.71430121       1.91112374      -0.52548317      -0.00397280      -0.00358690      -0.00607832
F       -1.81577628      -0.13565676      -0.51134504       0.00531317      -0.01025295       0.00813315
Br       2.55616755      -0.41951755       0.95359839      -0.01257076       0.01106922      -0.01313075
C        0.75531143       1.53011073      -0.13942715       0.03002383      -0.04349723       0.02439238
H        0.04687961      -0.39058249       0.55506001       0.00777953       0.02002174      -0.00914208
C        0.85091608      -0.67569664      -1.38978614       0.00145007       0.00768294       0.01101045
H       -0.21395773      -0.65673728      -1.65493389       0.04279568       0.00559155      -0.04661500
H        1.46373978      -0.15422726      -2.13135938      -0.01578846      -0.01464819       0.02198157
H        1.18608132      -1.71335623      -1.30773471      -0.03056332       0.01890738       0.01101883
C        0.60684631       2.13384088       1.20371808       0.02633064      -0.01352333      -0.06357019
N        0.46053694       2.70808625       2.19416339      -0.02137476       0.03009225       0.06330568
N       -0.33062772       1.86989314      -1.03395455       0.01819418       0.00851021      -0.02594989
H       -0.64856429       2.80960806      -0.83213927      -0.03708925       0.02455282      -0.00491364
H       -1.11280765       1.16049759      -0.85051876      -0.02557193      -0.01309253       0.01866399
