13
Properties=species:S:1:pos:R:3:forces:R:3 Coordinates=T from=T ORCA-job=T run=T Energy:=T 122.6121147=T energy=-88288.64342723376 pbc="F F F"
C        1.02305177      -0.02432103      -0.20376282      -0.06420866      -0.01736875      -0.04713046
H        0.86717065       1.94394167       0.64145679      -0.01378946       0.17317396      -0.04321080
Cl      -1.60437289       0.01681127       2.03082627      -0.01267590      -0.04399615      -0.04563283
Br       2.98718971       0.05841586       0.13000489      -0.07155685      -0.05367952      -0.13132226
C        0.41908617       1.36737268      -0.16706628      -0.02200672       0.05036848       0.06414037
H        0.61329990      -0.54375112       0.66429971       0.08182272      -0.00300409       0.05374535
H       -0.62756715       1.21656723       0.14862524      -0.04659876      -0.00201053       0.05125178
C        0.73386208      -0.75941638      -1.48614834      -0.02691727      -0.10557105      -0.07060559
H       -0.34564444      -0.72216338      -1.66370291      -0.04418886      -0.03368964       0.04665558
H        1.22502796      -0.30659640      -2.34876064       0.04439404       0.08297211       0.00397098
H        1.02688644      -1.80525782      -1.43389446       0.07831557      -0.13042273       0.07791710
C        0.45505833       2.07705695      -1.43202134      -0.00470385       0.07991145      -0.13940618
N        0.41335863       2.59036208      -2.46626589       0.10070319       0.01340087       0.16452969
