14
Properties=species:S:1:pos:R:3:forces:R:3 Coordinates=T from=T ORCA-job=T run=T Energy:=T 13.5025328=T energy=-21318.528969515526 pbc="F F F"
C        0.25289454       0.03978045      -0.06857904       0.01002376       0.01063899       0.02946688
H        3.08549965       1.11784710      -0.06650546      -0.02634850       0.00190791       0.02257517
Cl      -2.24107769      -1.50999306       0.08134650      -0.00853837      -0.00536364       0.03552265
H        3.82289992       1.11691607       0.04031071       0.03673519       0.00145684      -0.01761458
C        0.11173092       1.37060707      -0.04804138      -0.01262712       0.01933322      -0.00457688
H        0.31737262      -0.47114136       0.88474929       0.00883174      -0.03832887      -0.01040986
H       -0.03724920       2.00919354      -0.90755458       0.00223413      -0.01445510      -0.01483951
C        0.48980396      -0.73814035      -1.31688074      -0.01876770       0.01510700       0.01851588
H       -0.03882031      -0.30585946      -2.16860232       0.04341321       0.04723357      -0.01572964
H        1.56676405      -0.75529056      -1.54346931      -0.01991712      -0.00137927      -0.00583414
H        0.12548577      -1.75528777      -1.19269366       0.00388642      -0.01159433       0.00712380
N        0.03444052       2.10572011       1.18050953      -0.03723343       0.00640524      -0.00805322
O       -0.24621707       3.29673413       1.08309061       0.02636222       0.00783100      -0.02234878
O        0.26717189       1.55026437       2.24107622      -0.00107709      -0.03492385      -0.01688226
