15
Properties=species:S:1:pos:R:3:forces:R:3 Coordinates=T from=T ORCA-job=T run=T Energy:=T 13.3972530=T energy=-9721.16268913509 pbc="F F F"
C        0.98713166       0.02587742      -0.03758557       0.00282792       0.02102468      -0.00317152
H        1.99349381       1.73913051      -0.84073864      -0.01677287      -0.02207968       0.03281897
F       -1.77806859      -0.21555986      -0.30200981      -0.00336575       0.00902068      -0.03558366
F        2.16542219      -0.32582469       0.68093453       0.02800373      -0.00873030       0.01827252
C        1.05873636       1.51792582      -0.30040648      -0.03071512       0.02746687      -0.00148251
H        0.10548936      -0.19623878       0.57236909       0.02627383       0.01404040       0.01226690
H        1.14172106       2.01576911       0.67483004       0.01494474      -0.01033284       0.00556360
C        0.85880420      -0.82234918      -1.27467676       0.00131718       0.00828000      -0.00115166
H       -0.21208936      -0.77023248      -1.51657035       0.00537209       0.00761309       0.02082009
H        1.50522131      -0.48328023      -2.09586900      -0.01284116      -0.02886355      -0.00769438
H        1.10911292      -1.86051036      -1.02852522      -0.01022932       0.01206506      -0.02912891
C       -0.17154260       2.03085994      -1.04955650      -0.02996308       0.00837106      -0.02189876
H       -0.05095625       1.90284732      -2.13231571       0.00223996      -0.01455383       0.00911279
H       -1.04799642       1.41881430      -0.74748276       0.02533741      -0.01123240       0.02232088
H       -0.33499305       3.10051669      -0.86285333       0.00367972      -0.01819384      -0.01299872
