14
Properties=species:S:1:pos:R:3:forces:R:3 Coordinates=T from=T ORCA-job=T run=T Energy:=T 15.4882209=T energy=-87285.61627216588 pbc="F F F"
C        0.31951619      -0.01375469      -0.11067912      -0.03628778       0.01410036      -0.00347540
H        1.62986541       1.58412149      -0.35512097       0.03020883      -0.00819767      -0.04398293
Cl      -1.43951972      -0.30226674       0.41128063      -0.00891607      -0.01159921       0.00432595
Br       3.85079347      -0.20246690       0.53666623      -0.01928144       0.02610250      -0.00873608
C        0.55465433       1.47734248      -0.17719738      -0.00976851       0.00642126      -0.00663679
H        0.92499067      -0.41845915       0.69834155       0.00259220      -0.03751751       0.04154342
H        0.35798163       1.90522903       0.81742117       0.00450688      -0.02108856       0.02724611
C        0.58668875      -0.76051195      -1.39078542      -0.02468019       0.00533871       0.02022508
H        0.03328592      -0.32883481      -2.22632588       0.01386134       0.02787656      -0.00249963
H        1.66318288      -0.69220047      -1.57606558       0.01091268       0.00479498      -0.00290561
H        0.32653692      -1.81585911      -1.28394557       0.01584826      -0.00816752      -0.00498902
N       -0.20275134       2.11553704      -1.24877847      -0.00596755       0.01227649      -0.01555208
H        0.06661912       3.08994971      -1.30859105       0.02313717      -0.00328281      -0.00996010
H       -1.18813993       2.10158191      -1.00593690       0.01011831      -0.01633590       0.00312166
