16
Properties=species:S:1:pos:R:3:forces:R:3 Coordinates=T from=T ORCA-job=T run=T Energy:=T 46.9892663=T energy=-31271.971812804615 pbc="F F F"
C        0.88901677       0.06728903      -0.02901357       0.00699143      -0.01724383       0.01893524
H        1.66336074       1.95348706      -0.66376545       0.04509917       0.01371368      -0.00865123
Cl      -2.60844485      -0.50412377      -0.24191672      -0.00258023       0.00762110      -0.01655765
Cl       2.42178947      -0.29581867       0.93492875      -0.01402467       0.01015338      -0.04374300
C        0.75367188       1.58169507      -0.15780185       0.00535254       0.01185092       0.00398223
H        0.07081937      -0.30981185       0.58631218      -0.01716906      -0.01114826      -0.00028817
C        0.95480867      -0.66236313      -1.34480541       0.00527722       0.00702518       0.00418481
H        0.00689869      -0.50434382      -1.86234298       0.00527461      -0.02194169       0.01394523
H        1.77570677      -0.29103115      -1.96616993      -0.00167822       0.00801986      -0.00597178
H        1.08374591      -1.73502700      -1.18406324      -0.00025495       0.02008189       0.01158924
N        0.60299124       2.17386504       1.17567718      -0.00881374       0.00229692       0.03229074
H        0.61913491       3.18419601       1.07844174       0.00778699      -0.01700012       0.01454583
H        1.40305886       1.92451543       1.74932481       0.01078301       0.01933013      -0.00816021
N       -0.37349494       1.85576353      -1.01734378      -0.01525646      -0.00912574       0.00493575
H       -0.63657666       2.83005385      -0.91533571      -0.00522287      -0.00678093      -0.03681367
H       -1.18152484       1.29457698      -0.71844845      -0.01617752      -0.00506283       0.00690899
