15
Properties=species:S:1:pos:R:3:forces:R:3 Coordinates=T from=T ORCA-job=T run=T Energy:=T 116.7212529=T energy=-26525.890254959002 pbc="F F F"
C        0.22794342      -0.09630409       0.01712456       0.01546836       0.01861221      -0.03657905
H        2.25295277       1.24492408       0.07117896      -0.02606300      -0.01702535      -0.03023468
Cl      -1.90180945      -0.90337909       0.13008938      -0.10015019      -0.00264676      -0.05478519
F        3.16503899       1.14949553      -0.16736407      -0.07871576       0.02946741      -0.00378772
C        0.29104999       1.28958592       0.08988837       0.00892764      -0.02232933       0.00693135
H        0.23221551       1.79523802      -0.87252845       0.01280290      -0.05266068       0.02454588
C        0.64009656      -0.78733470      -1.25259870      -0.07830467       0.05931758       0.04086454
H        0.09055191      -0.35675440      -2.09538485       0.06411761       0.00534939       0.13670406
H        1.71852154      -0.64977444      -1.40967916      -0.11987619      -0.05790638       0.04101450
H        0.39533804      -1.84588713      -1.18647698       0.13418963       0.08913398      -0.05832811
N        0.62757349      -0.86026425       1.25355703       0.18320106       0.11874311      -0.02190112
O        0.59001087      -0.28370468       2.31657951      -0.10454838      -0.06223087      -0.07138591
O        1.03008274      -1.99304365       1.08899352      -0.00619401      -0.03727148       0.09166604
C       -0.12259234       2.10482627       1.16957683      -0.02032847      -0.03603961       0.00406609
N       -0.48120338       2.86784418       1.96594032       0.12192772      -0.04464617      -0.05582146
