18
Properties=species:S:1:pos:R:3:forces:R:3 Coordinates=T from=T ORCA-job=T run=T Energy:=T 204.4228535=T energy=-27595.675755601744 pbc="F F F"
C        0.03276196      -0.14727372       0.08554528       0.03586647       0.03420901      -0.02655998
H        1.48453893       1.40347705       0.24782748      -0.02943805      -0.01124288      -0.00981739
F       -1.32403244      -0.30915040       0.27857473       0.02824960      -0.04681002       0.02008719
Cl       3.42204453       1.07281357      -1.17668974       0.06353030      -0.05239814      -0.02571266
C        0.39245300       1.33431891       0.09668329       0.00125403       0.03438528      -0.02986316
C        0.45714675      -0.89353930      -1.14018092      -0.00668777      -0.02835391       0.00585695
H       -0.13764698      -0.53929463      -1.98304300       0.03446146       0.02320794      -0.01999144
H        1.51851442      -0.71431545      -1.34415323      -0.00400611       0.04232406       0.01603201
H        0.25793939      -1.95129607      -0.98533542       0.03254416      -0.07744698      -0.02796658
N        0.64482486      -0.84951847       1.33586250       0.02153906       0.00924517      -0.01389867
O        1.03955629      -0.15170141       2.23661049       0.00548006       0.00866333       0.01219347
O        0.64216737      -2.06052170       1.33170169      -0.08731404       0.03560913       0.01021546
C       -0.31208737       2.05057714       1.15308685       0.03206926      -0.01708975       0.00930164
N       -0.88511714       2.68503441       1.92607366      -0.03351065       0.01898460       0.04405833
C        0.11507680       2.00547287      -1.25527275       0.00092904      -0.01229485       0.00938680
H        0.86265997       1.65969325      -1.97119800      -0.00543997       0.01287239       0.02545661
H       -0.89749643       1.80064022      -1.61648612      -0.01028692       0.06642847       0.04888325
H        0.24756999       3.08405527      -1.14428129      -0.05738156      -0.04294397      -0.05152027
