16
Properties=species:S:1:pos:R:3:forces:R:3 Coordinates=T from=T ORCA-job=T run=T Energy:=T 189.2540985=T energy=-92300.94839263849 pbc="F F F"
C        0.14195835      -0.08537774       0.00976283       0.02290288       0.00518919       0.00327630
H        1.60763704       1.40472572      -0.27776605       0.01590341       0.01118154      -0.04275008
Br      -1.85790045      -0.31794808       0.19880860       0.03189132       0.05335494       0.01499029
Cl       3.67400902       1.02413458      -0.43859897       0.02378153      -0.05071029       0.00345850
C        0.50053718       1.41674243      -0.07562711       0.00260941       0.01738769       0.01565462
C        0.60829032      -0.86784276      -1.20113057      -0.02897011       0.01344950       0.01988947
H        0.09194530      -0.51118540      -2.09223076      -0.01742554       0.04736891      -0.03533490
H        1.68486697      -0.69387655      -1.31630362       0.02322053      -0.03198983       0.04612933
H        0.40185172      -1.92931695      -1.07067887       0.04707165      -0.06182411      -0.04206370
C        0.66347473      -0.64321954       1.25157988      -0.07259623      -0.05481749       0.04806311
N        1.01672308      -1.11064778       2.24468614       0.04941275       0.04854521      -0.04930704
N        0.29359185       2.20966389       1.10571591      -0.01570635       0.00453816       0.02386571
H        1.00464760       1.97836620       1.78782709       0.02319018       0.03391231      -0.00562691
H       -0.62094524       2.04612219       1.50664490      -0.07132818      -0.02382735       0.04506000
C       -0.14806955       2.03258403      -1.22875147      -0.03086628      -0.00328658      -0.01338890
N       -0.65457305       2.52575685      -2.13947960      -0.01150352       0.00118061      -0.01659184
