15
Properties=species:S:1:pos:R:3:forces:R:3 Coordinates=T from=T ORCA-job=T run=T Energy:=T 25.3089846=T energy=-79989.29736972295 pbc="F F F"
C        0.03249304      -0.14851456       0.02751252      -0.07013246       0.11697966       0.06944851
H        1.58702948       1.34279275      -0.03122234      -0.01600732      -0.20901182       0.07412117
F       -1.37819527      -0.18633630      -0.05067690       0.07268780       0.13858212      -0.01622159
Br       3.95526911       1.17153560      -1.13923935      -0.08762263       0.03160101       0.00985027
C        0.48925831       1.31028107       0.03967377      -0.03202989       0.22074376       0.01515638
H        0.19292569       1.75684820       0.99708947      -0.00096254      -0.00956442       0.13255289
C        0.59129456      -0.93179738      -1.12987457      -0.03457593       0.10616070      -0.07670057
H        0.33404852      -0.37886190      -2.03495499       0.00665466      -0.04009027      -0.02502583
H        1.68430271      -0.96458347      -1.05817591      -0.08494784      -0.11148407      -0.04497992
H        0.13242408      -1.92546624      -1.15115603       0.19841923       0.00912174      -0.03815136
C        0.33548561      -0.78361309       1.31898958      -0.07719382      -0.08819789      -0.05299952
N        0.48567769      -1.30585609       2.33370429       0.11152461      -0.02037425       0.12247177
N       -0.04768283       2.02319247      -1.10166391      -0.09159974       0.23217711      -0.11995670
H        0.61448720       2.73943914      -1.39093682      -0.14569407      -0.26797011       0.02915456
H       -0.93220828       2.46728990      -0.87142058       0.23418995      -0.11114266      -0.07328014
