15
Properties=species:S:1:pos:R:3:forces:R:3 Coordinates=T from=T ORCA-job=T run=T Energy:=T 229.5283062=T energy=-32274.656121927906 pbc="F F F"
C       -0.04786026      -0.16818688      -0.03079632      -0.00869779       0.02856336       0.00503284
H        1.49690708       1.27060475      -0.37913567       0.01637955      -0.00795902       0.03786853
Cl      -1.88787813      -0.15919013      -0.20857886       0.00514668      -0.03836550       0.00186604
Cl       3.77053630       1.78745392       0.04820015       0.00601149      -0.00858221       0.03309717
C        0.47261424       1.27471483       0.02510208       0.00160449       0.02083972      -0.00500779
H       -0.15316572       1.85908971      -0.65442164       0.01078131      -0.02118293      -0.04743857
C        0.54906927      -0.90535638      -1.21985086      -0.01703485       0.01686703       0.03825504
H        0.36606917      -0.33391751      -2.13341301      -0.05217911      -0.03631477       0.02707810
H        1.63055127      -0.96138149      -1.07359158       0.02922649      -0.01456362      -0.00804165
H        0.13861166      -1.91133962      -1.32217441      -0.01296081       0.02616117      -0.02094317
C        0.20783248      -0.90107839       1.20799069       0.01049363      -0.00760739      -0.03942077
N        0.42090335      -1.53510454       2.14621904       0.00934717       0.00219235      -0.02397053
N        0.45434354       1.83424047       1.36171869       0.01890163       0.02578195      -0.00377892
H        0.23283408       2.81885873       1.30122607      -0.04086140       0.01136266       0.02048029
H        1.41456141       1.80121741       1.69689904       0.03429913       0.00404333      -0.00599791
