17
Properties=species:S:1:pos:R:3:forces:R:3 Coordinates=T from=T ORCA-job=T run=T Energy:=T 42.7219547=T energy=-78549.11170200756 pbc="F F F"
C       -0.01854888      -0.02587992      -0.05053907      -0.02200860      -0.00691392      -0.01904794
H       -0.34363217       2.02519017      -0.64092437      -0.01721957      -0.00276504      -0.01014708
Br      -1.85982339      -0.35415259      -0.94469915      -0.02171511       0.01588331      -0.00494597
F        2.79354150      -0.08498503       1.35478776      -0.00523348      -0.01571136       0.00665896
C        0.01813066       1.48666983       0.24175968      -0.00344639      -0.00249237      -0.00466033
H       -0.71050630       1.68278015       1.04089562      -0.00475298      -0.00196876       0.00017492
C        1.05262641      -0.46509821      -1.01781283       0.00602449      -0.00137012       0.00578027
H        0.90556510      -1.50371039      -1.32628448      -0.00907759       0.00662529      -0.00634273
H        1.08644834       0.16773081      -1.91084163       0.02026959      -0.00286698       0.01015720
H        1.98794962      -0.39506675      -0.43331130       0.01079629       0.02637646      -0.00547028
C        0.02292038      -0.85645906       1.20684288       0.01294654       0.00419687      -0.01019124
H        1.05279824      -0.71183604       1.59540869      -0.00242809       0.01698947       0.01421345
H       -0.73162257      -0.53143665       1.92995591       0.02098800      -0.01898460      -0.00150467
H       -0.12307629      -1.91877930       0.98930682      -0.00987198       0.01136128       0.00173546
N        1.32354700       1.99600243       0.61888515      -0.00869997      -0.00185693       0.01947913
H        1.84448782       2.18555835      -0.23033429      -0.00725493      -0.02551218      -0.03701211
H        1.89576401       1.24629206       1.08300178       0.03406858      -0.00422099       0.02565304
