16
Properties=species:S:1:pos:R:3:forces:R:3 Coordinates=T from=T ORCA-job=T run=T Energy:=T 136.8617828=T energy=-146875.9945929078 pbc="F F F"
C        1.11229602      -0.06868963       0.08952738       0.07295754       0.08677599       0.00820890
H        0.93959164       1.92580331      -0.71063605      -0.08831293       0.00807802      -0.01053497
Br      -2.76452190       0.22033201      -0.81042061       0.03357866      -0.00923356       0.05473618
Br       3.12684175       0.12340127       0.21101355       0.05203623      -0.09228694      -0.09129447
C        0.53999523       1.34931966       0.12930614       0.02558039       0.03532195      -0.02297395
H       -0.55655293       1.25774790      -0.01881660       0.00430951      -0.02011661      -0.03565117
C        0.76952832      -0.75807639      -1.21740317       0.05109489       0.04965744       0.06650966
H       -0.31907675      -0.91162835      -1.23815130       0.02299153       0.10058041      -0.04268830
H        1.04597158      -0.16130529      -2.09097742       0.01811863       0.01758005       0.06908841
H        1.27325002      -1.72596002      -1.28371730       0.00256809       0.02200723       0.02904123
C        0.67173421      -0.89032970       1.27685126      -0.00659368      -0.02667556      -0.02336698
H        1.00728190      -0.45106438       2.21860650      -0.08425101      -0.01697877       0.00727413
H       -0.42211101      -0.92714048       1.24817113      -0.07953716       0.00332173       0.08035127
H        1.05240309      -1.91055733       1.20140926       0.04323003      -0.01429841       0.03982595
C        0.80349458       2.09580205       1.35301688      -0.06403088      -0.04671502      -0.00890996
N        0.98101398       2.71208434       2.31296897       0.00584336      -0.08996170      -0.11215262
