18
Properties=species:S:1:pos:R:3:forces:R:3 Coordinates=T from=T ORCA-job=T run=T Energy:=T 76.9697180=T energy=-23538.583952066092 pbc="F F F"
C        0.02658483      -0.11945699      -0.00428309      -0.03101500      -0.03036788      -0.00081184
H        1.66804504       1.10830305       0.03121891       0.03491089       0.01330531      -0.01051772
Cl      -1.85457005      -0.13120013      -0.04304468      -0.00259449      -0.03348579      -0.00657573
F        2.96078820       0.30783983       0.02064557      -0.00476986       0.01196290      -0.00248978
C        0.51974523       1.32215072       0.01219348      -0.02475779      -0.00116974      -0.01226959
C        0.53463115      -0.80959127      -1.25066510       0.00331779       0.00385404      -0.00378759
H        0.22698185      -1.85930120      -1.27270272       0.00276391       0.01910371       0.02940518
H        0.19154526      -0.30292811      -2.15268051      -0.01223015       0.01426397       0.02129672
H        1.62723539      -0.71780392      -1.17040375       0.00425815      -0.00970365      -0.01540172
C        0.49475162      -0.83888238       1.24179732       0.00135432      -0.00019980       0.00199053
H        1.58899714      -0.73919432       1.20166949       0.00223355      -0.01190515       0.01584026
H        0.11272285      -0.37836098       2.15647244      -0.01766554       0.01755817      -0.02914754
H        0.19984075      -1.89169051       1.22696123       0.00025363       0.01430351      -0.03019251
C        0.14364596       2.03997580       1.22519241       0.00921699       0.00976160      -0.00332000
N       -0.13451709       2.68959132       2.14092256      -0.00172292       0.02258413       0.04350187
N        0.15797516       2.06058487      -1.18944222      -0.00371996       0.00600635       0.00330043
H        0.76469600       2.86575590      -1.27811832      -0.00040546      -0.01877628      -0.00932417
H       -0.79782101       2.39705894      -1.12474491       0.03701911      -0.01235110       0.00400306
