19
Properties=species:S:1:pos:R:3:forces:R:3 Coordinates=T from=T ORCA-job=T run=T Energy:=T 57.9186815=T energy=-20404.696230036738 pbc="F F F"
C        1.22311423       0.02055483       0.10565920       0.01103146      -0.00205162       0.00555415
H        1.53020073       1.83955098      -0.98768112      -0.02306646       0.00989212      -0.01062210
Cl      -2.32491177      -0.92077787      -2.06247347       0.00955906       0.00880060       0.00332390
H        2.22861680      -0.01071321       0.54812238       0.02513677      -0.02115154      -0.00370180
C        0.90769123       1.51804031      -0.14149360      -0.00183195       0.01517759       0.00157021
C        1.24529227      -0.74864611      -1.21075513      -0.00143293       0.00568991      -0.01007923
H        0.25343831      -0.78407678      -1.67610779      -0.01913522      -0.01359827       0.00882437
H        1.95472142      -0.30885738      -1.92176670       0.02411913       0.00206840       0.00735471
H        1.55256494      -1.78470164      -1.03241899       0.00386381       0.00801140      -0.00476707
C        0.24167512      -0.61042943       1.08488707      -0.00557047      -0.00354136       0.01487153
H        0.57656428      -1.61580059       1.35813297      -0.00445433      -0.00982375       0.00006922
H        0.15793351      -0.02512224       2.00706465      -0.00979463      -0.00545084       0.02113075
H       -0.74766716      -0.70756209       0.62802531      -0.00144466      -0.00969501       0.00248337
C        1.34745764       2.32233799       0.99906076       0.03145866      -0.01649392      -0.00379875
N        1.69885403       2.94925808       1.90264717      -0.01085548       0.00812174      -0.00004776
C       -0.55989324       1.81588379      -0.46380549      -0.01125464       0.01365187      -0.00888266
H       -0.95994788       1.11844583      -1.20795138       0.00182846       0.00136973      -0.00629772
H       -1.18329938       1.71508898       0.42720317       0.00756780       0.00429027      -0.00926557
H       -0.66568371       2.83888752      -0.83468077      -0.01970893       0.01073679      -0.00198460
