20
Properties=species:S:1:pos:R:3:forces:R:3 Coordinates=T from=T ORCA-job=T run=T Energy:=T 41.7409522=T energy=-79617.41434774807 pbc="F F F"
C        0.05511554      -0.12320188      -0.01923871      -0.00660277       0.03222249       0.03565365
H        1.57334571       1.20160278      -0.04277622      -0.01084879      -0.00761003      -0.01798732
Br      -2.03894046      -0.23051554      -0.07786263      -0.00123175      -0.01695293      -0.00153104
F        3.00505490       0.13399211       0.17032593       0.00466685       0.00579743       0.00992879
C        0.46191321       1.34367225      -0.00792542      -0.00474230       0.02970959      -0.00199783
C        0.58769029      -0.80918248      -1.25165701      -0.00810915       0.01983882       0.02259239
H        0.28391684      -1.85912941      -1.28972082       0.00611101       0.00652332      -0.00851358
H        0.28813415      -0.28815587      -2.16010851      -0.00474857      -0.01048257      -0.00703015
H        1.67961712      -0.72032431      -1.10316989       0.00494305      -0.00620960      -0.01412119
C        0.51468053      -0.84501502       1.22132506       0.00676800       0.00103894       0.01130838
H        1.61157517      -0.67060107       1.19298861       0.00191785       0.00040970      -0.00480574
H        0.07204296      -0.45030226       2.13822465       0.00001256       0.00090697      -0.00659004
H        0.29662888      -1.91481052       1.15784090      -0.00238199       0.00600840      -0.00711311
C        0.10716189       2.10821618       1.26265077       0.00327170       0.00034453       0.00740331
H       -0.97433428       2.10826754       1.45182322       0.01035428      -0.00311011      -0.00725549
H        0.61892058       1.71091171       2.14280492      -0.00407376      -0.01811264       0.00110869
H        0.43101294       3.14970982       1.14693566      -0.01709518      -0.00663904       0.03488374
N        0.00294795       2.02264778      -1.21834574      -0.00074587      -0.00508610      -0.02712621
H        0.44927015       2.93215217      -1.26395475       0.01503035      -0.03164474      -0.00906247
H       -0.99790068       2.18850326      -1.13864972       0.01452687      -0.00144773      -0.00495303
