19
Properties=species:S:1:pos:R:3:forces:R:3 Coordinates=T from=T ORCA-job=T run=T Energy:=T 82.4332545=T energy=-23892.051878905695 pbc="F F F"
C        0.26253177      -0.02302106      -0.05560459      -0.03799670       0.05978221      -0.11187263
H        3.07380240       1.13404998      -0.00905174       0.01163122      -0.01594127      -0.00990843
Cl      -2.69892597      -1.56073700      -0.00677923      -0.00310980      -0.05630898       0.01108202
H        3.81017860       1.15344577       0.11025405      -0.01025554       0.00519043       0.00838741
C        0.25311281       1.32842176       0.03874162       0.14725740       0.16179108      -0.12162730
C        0.36666772      -0.81797663      -1.31382165       0.01653596      -0.08580092      -0.03927973
H       -0.12993536      -1.77500609      -1.16794670       0.05170590      -0.10247559       0.09094655
H       -0.09262145      -0.33840192      -2.16985170      -0.04339197       0.08176999       0.05114763
H        1.43032046      -0.97182368      -1.56141968      -0.05846256      -0.08124212       0.03904118
C        0.32687763      -0.76961062       1.24506043       0.01704920       0.06323250      -0.08926051
H        1.37794206      -0.85892673       1.57640620      -0.11474482      -0.04629968      -0.00886912
H       -0.22645862      -0.22036966       2.00712027       0.04645080       0.01068994       0.05033866
H       -0.12512208      -1.75805292       1.15481204       0.06468839       0.04106541      -0.11929388
N        0.29385896       2.00204317       1.26229310      -0.11273980       0.03377401       0.18888196
H        0.03987643       2.97204571       1.14177361       0.07250751      -0.00893659      -0.00042360
H        1.18377410       1.92297239       1.73680180      -0.02105311       0.01768250      -0.06119704
N        0.16485097       2.23825913      -1.11042884      -0.20621827      -0.26224127       0.05192103
O        0.08212327       3.43573092      -0.84314361       0.04010984       0.06136057      -0.09893165
O        0.13437750       1.81171117      -2.25230946       0.13537670       0.12256203       0.17881635
