15
Properties=species:S:1:pos:R:3:forces:R:3 Coordinates=T from=T ORCA-job=T run=T Energy:=T 68.4730238=T energy=-12666.312636567818 pbc="F F F"
C        0.11452970      -0.16249860       0.06759881       0.01081272       0.00397084       0.01701062
H        1.59240229       1.29324468       0.03676443       0.01649403      -0.01707611      -0.01398497
F       -1.27819766      -0.31186291       0.22215632      -0.01127979       0.00036987      -0.00895851
F        2.98120456       0.17580687       0.05871403       0.00248914       0.01016370       0.02196267
C        0.47395055       1.32354209       0.03845345       0.00633587       0.01965269       0.01758732
H        0.11547316       1.79423264      -0.88281720      -0.01151194      -0.00849290       0.00956116
C        0.51114823      -0.80148050      -1.25118377       0.00278439       0.00197727      -0.00364608
H        0.00807422      -0.34800963      -2.11261101      -0.00547499       0.01356034      -0.00168718
H        1.59681685      -0.66436970      -1.30515089       0.00963929       0.00151647      -0.03133676
H        0.26772156      -1.86910706      -1.22936745      -0.00802588      -0.00806350       0.00811215
N        0.77792617      -0.73068531       1.19834138       0.00436846      -0.01511194       0.00767055
H        1.78532574      -0.50562306       0.99626805      -0.00610912       0.00493058       0.01074109
H        0.67608644      -1.74040933       1.15182724       0.01356567      -0.01975257      -0.01185788
C       -0.03899634       2.06989556       1.16908817      -0.00397894      -0.01330675      -0.02514017
N       -0.44494444       2.71483002       2.03621472      -0.00279954       0.02402205       0.00372435
