14
Properties=species:S:1:pos:R:3:forces:R:3 Coordinates=T from=T ORCA-job=T run=T Energy:=T 104.4247738=T energy=-22907.398863190945 pbc="F F F"
C       -0.06308918      -0.04890894      -0.23901376       0.00770752      -0.00337130      -0.02252088
H        1.45043046       1.40829211      -0.54446829      -0.02791337       0.01153678      -0.00626881
F       -1.42070350      -0.11640787      -0.53186079      -0.00264305       0.01399416      -0.01449974
Cl       3.06742861      -0.11616098       1.03141855      -0.01546738       0.00563465       0.00446994
C        0.41435766       1.41223182      -0.17438428      -0.01047907       0.00505143       0.01397620
H        0.04408905      -0.48169022       0.76360638      -0.00892540       0.04586748      -0.00171812
N        0.65189854      -0.73383233      -1.27008204       0.02252791      -0.03372876      -0.01937203
H        0.36400885      -1.70655497      -1.26618130      -0.01096904      -0.01448557       0.01261138
H        1.62989371      -0.72588772      -0.97230021       0.01059270      -0.02366139      -0.01801098
N        0.33027035       1.90011874       1.20044129       0.01185431       0.00547221       0.03311195
H        0.61457065       2.87437717       1.20980422      -0.01498506       0.01816308      -0.00405946
H        1.08127191       1.40058186       1.68167356       0.01445319      -0.02816104       0.00059005
C       -0.36222059       2.26729467      -1.07168761       0.04069898       0.00283234       0.02622347
N       -0.91753638       2.99831900      -1.76865103      -0.03035366      -0.00871503      -0.00900673
