16
Properties=species:S:1:pos:R:3:forces:R:3 Coordinates=T from=T ORCA-job=T run=T Energy:=T 46.9704451=T energy=-8963.735313542069 pbc="F F F"
C        0.70569116       0.00557050       0.27209019      -0.01496340       0.01405347       0.00910788
H        1.51059203       1.74056635      -0.62829817      -0.00340329       0.00125870      -0.02777017
F       -1.11827664      -0.11936929      -2.38512480      -0.00267047      -0.01043086       0.01342948
H        1.50437781      -0.16755476       1.01604208      -0.01472407      -0.00156813       0.00425444
C        0.62156637       1.50948265      -0.02284613       0.03151405       0.00734993       0.01879120
H       -0.25053364      -0.27467841       0.76397065      -0.02462312      -0.01500285       0.00245283
N        0.99803878      -0.74857220      -0.93231965       0.02338733       0.00614771      -0.00686777
H        0.20084230      -0.58135341      -1.60181039      -0.00446914       0.01316858      -0.01598653
H        0.95485587      -1.73656549      -0.70091301      -0.00443920      -0.03411608      -0.00011939
C        0.70228870       2.31552223       1.26776948      -0.00126882       0.00503538      -0.00324107
H       -0.13608188       2.06061319       1.93153137       0.01118467      -0.00352110      -0.00133957
H        1.63094858       2.12535682       1.81963634      -0.01408686       0.01106044      -0.00703541
H        0.63442687       3.38510907       1.04766744      -0.00834471       0.00049347      -0.00388952
N       -0.54834506       1.92666650      -0.78476217       0.03970345       0.00948742       0.02615378
H       -1.35488101       1.81598683      -0.17179932      -0.00756686      -0.03581172       0.00634194
H       -0.73531604       1.22027050      -1.54170403      -0.01665111       0.03139311      -0.02320432
