14
Properties=species:S:1:pos:R:3:forces:R:3 Coordinates=T from=T ORCA-job=T run=T Energy:=T 137.5808645=T energy=-17157.45865900359 pbc="F F F"
C        0.84907800      -0.10479745       0.11413400      -0.00259256       0.00280511       0.02386071
H        1.71099912       1.67944736      -0.62208889       0.01048099       0.01075922      -0.02784526
F       -1.45901123      -0.17608188      -0.90908499       0.00015272       0.00194481      -0.02772302
F        2.04549629      -0.23752226       0.84968056       0.00288382      -0.00394283       0.03252053
C        0.77086631       1.41723161      -0.13267358       0.00477835       0.01122266      -0.02299279
H        0.03433641      -0.40498597       0.77386079      -0.02265777      -0.01122583       0.02104890
N        0.93773296      -0.81935600      -1.10248791       0.01214432       0.03094821      -0.00046016
H       -0.08348134      -0.70761784      -1.39208160      -0.02708065      -0.01825136       0.00065247
H        1.03520435      -1.79896780      -0.84398375       0.01254230       0.02581323       0.00254947
C        0.67751587       2.13915901       1.12974929      -0.02109093       0.02097249      -0.03898323
N        0.66696680       2.70195513       2.13495781       0.00835186      -0.03260321      -0.02996093
N       -0.30253528       1.91838958      -1.09707235       0.00592024       0.00843886       0.02879905
O       -1.20961015       2.56536563      -0.63256386      -0.01338018      -0.01686033       0.02419041
O       -0.04301104       1.78541839      -2.26882688       0.01892852      -0.01827672       0.02761729
