14
Properties=species:S:1:pos:R:3:forces:R:3 Coordinates=T from=T ORCA-job=T run=T Energy:=T 105.6951162=T energy=-22906.163109396246 pbc="F F F"
C       -0.06010680      -0.18824002      -0.00274051       0.00058220       0.00534628      -0.01046835
H        1.59155995       0.96178352       0.06833208       0.01292772       0.01420205      -0.00176966
Cl      -1.93170721      -0.12877986      -0.04731774      -0.00361575      -0.00035333      -0.02347509
F        2.75019231      -0.19747115      -0.14024450      -0.00712777       0.02310816      -0.01346161
C        0.48906410       1.24122421       0.04422874      -0.00675743       0.01403503       0.00727834
H        0.16214060      -0.68401419       0.94116689      -0.00025269      -0.00174549      -0.00914052
N        0.45340649      -0.93688383      -1.08205397      -0.00083963       0.02425084       0.01868532
H        1.48892457      -0.90006501      -0.84327623      -0.01945750      -0.01456319      -0.00774341
H        0.36324170      -0.34133388      -1.90391557       0.00120022      -0.01134128       0.00132862
C        0.11991465       1.97713610       1.24926013       0.00414099      -0.02755518      -0.01578914
N       -0.15609767       2.60122145       2.18261364       0.00458596       0.01941677       0.01708022
N        0.19180702       1.96038164      -1.18518735      -0.00204687      -0.00189512       0.01765231
H        0.84900289       2.71970063      -1.30520221      -0.00552722      -0.01758599      -0.00586949
H       -0.74327421       2.35138303      -1.15649692       0.01616793      -0.01585460       0.01193949
