14
Properties=species:S:1:pos:R:3:forces:R:3 Coordinates=T from=T ORCA-job=T run=T Energy:=T 171.0956513=T energy=-17158.20461881185 pbc="F F F"
C        1.18958792      -0.02213808      -0.08499633       0.06058455       0.10034100       0.04069749
H        1.55560691       2.08358873       0.02574177      -0.29501776      -0.23545092      -0.00306576
F       -1.36390928      -0.18119658      -0.27710833       0.11183307      -0.03760062      -0.02530229
F        2.57096181      -0.01307084       0.13692747      -0.17759335       0.03833538      -0.06040538
C        0.67322033       1.41984546      -0.06071309      -0.02382042       0.09704082       0.16150842
H        0.03820296       1.55365586       0.82034100       0.16567147      -0.06841201      -0.13706084
N        0.85458369      -0.75469401      -1.19516558       0.06554240      -0.05189131       0.06514868
H       -0.21706792      -0.71167677      -1.11007226      -0.10818350       0.11734598      -0.01640524
H        1.16724373      -1.70975340      -1.05509616      -0.00278926       0.00628314       0.02049243
N        0.73917546      -0.75326497       1.27692557      -0.00704882      -0.22925371      -0.20377661
O        0.47006518      -0.09368119       2.25309451       0.06921097       0.00626996       0.04432182
O        0.81170066      -1.96611182       1.24906151      -0.03624860       0.32381008       0.05511334
C       -0.09497788       1.85169868      -1.22411528       0.07101924       0.15073500      -0.11396774
N       -0.58686356       2.40835585      -2.10951489       0.11474670      -0.20565682       0.18436356
