14
Properties=species:S:1:pos:R:3:forces:R:3 Coordinates=T from=T ORCA-job=T run=T Energy:=T 86.2630752=T energy=-26417.22071421592 pbc="F F F"
C       -0.07687411      -0.11500913       0.00869712      -0.02047729      -0.00491381      -0.00859114
H        2.10717209       0.98854142      -0.05420330      -0.00873786       0.01247500       0.01390095
Cl      -2.02393242      -0.47515432      -0.05179896      -0.00293253       0.00862078      -0.00938364
F        2.93841109       0.56732202      -0.26857058      -0.01792741      -0.00129979      -0.02081722
C        0.26172705       1.30503972       0.03944725       0.01720653       0.02001649       0.00309686
N        0.40790986      -0.75708578      -1.16768498       0.01323180       0.00781885       0.02101289
H        0.19874301      -1.74571257      -1.16161116      -0.01019481       0.00644949       0.02760715
H        1.40884241      -0.60537541      -1.23363851       0.03223184      -0.01397816      -0.02786329
C        0.26726003      -0.80304639       1.26008251       0.00953632      -0.04464313       0.00915544
N        0.59767373      -1.41319320       2.18156168      -0.00526886       0.01231459      -0.00774513
C        0.13969771       2.03278423       1.24629473       0.01045712      -0.01390107      -0.00667765
N        0.08189549       2.64058234       2.23146416      -0.01657343       0.02877339       0.04526989
C        0.14407826       2.04093386      -1.16652142       0.03067430      -0.06531870       0.01414289
N        0.09225012       2.66193895      -2.14299445      -0.00164376       0.05364277      -0.04141559
