16
Properties=species:S:1:pos:R:3:forces:R:3 Coordinates=T from=T ORCA-job=T run=T Energy:=T 97.7540370=T energy=-24978.20107784088 pbc="F F F"
C        0.25807237      -0.24078170       0.13387148       0.27308922      -0.35566344      -0.21302994
H        1.62942810       1.29555957       0.07822001       0.08201243       0.10299490       0.12801332
Cl      -2.19665181      -0.12098775      -0.12456543      -0.03997958       0.04171280       0.01057490
F        2.66229266       0.36909482      -1.97717896      -0.07589607      -0.24847750       0.11664461
C        0.53308175       1.25988740       0.11429457       0.07690374       0.05295361      -0.08851476
N        0.83765212      -0.94712715      -0.78481755      -0.07843014       0.17781843       0.04970359
H        0.78070620      -1.94948088      -0.64254522      -0.12420558       0.06701855       0.11567045
H        1.95392604      -0.22555966      -1.65076319       0.06992351       0.25706919      -0.10394991
C        0.00745724      -0.83806764       1.43578180      -0.01192192      -0.04791954      -0.32263734
N        0.00341488      -1.39839878       2.44539040      -0.02313317       0.02679966       0.16605832
C        0.02051628       2.01709418       1.32773116       0.04517757       0.06975053       0.07857935
H       -1.06482060       1.96417367       1.37529337      -0.09323377       0.01555564      -0.03141391
H        0.43036409       1.59228523       2.24292634       0.04717137      -0.06138812       0.10467018
H        0.34013735       3.05629399       1.26405465      -0.03927079       0.12606823       0.03172861
C        0.14258067       1.95513392      -1.11143620       0.07944373      -0.39074062       0.20405894
N       -0.04573141       2.62416148      -2.02687144      -0.17724418       0.15971015      -0.24207755
