14
Properties=species:S:1:pos:R:3:forces:R:3 Coordinates=T from=T ORCA-job=T run=T Energy:=T 217.9144868=T energy=-80425.71853232142 pbc="F F F"
C       -0.15491795      -0.06189570      -0.13419521      -0.00175103      -0.01357950      -0.03533350
H        1.16797409       1.54130744      -0.60915918      -0.00514397       0.04145591      -0.01215055
F       -1.44616766      -0.07885355      -0.70983767      -0.08053182       0.02625655       0.00207498
Br       3.79344321       0.45381951      -0.21539861      -0.02578010       0.02575144       0.05892458
C        0.29278054       1.40135195       0.03612183      -0.01759652      -0.01195561      -0.03748400
H       -0.53239738       2.00161968      -0.35336622      -0.03203530      -0.00065107       0.00034104
N        0.71880660      -0.74679021      -1.00167220       0.04732435      -0.01790223       0.02458501
H        0.62772092      -1.75231257      -0.94205713      -0.01184301       0.03303310       0.04913777
H        1.70007799      -0.47406482      -0.85271051       0.00117901       0.00646643      -0.03060572
C       -0.35508282      -0.76345424       1.16237283       0.04943081      -0.05633137       0.07186108
N       -0.45792893      -1.41788228       2.10642098      -0.05157953       0.04441158      -0.03547162
N        0.53167456       1.77684229       1.42236177       0.04037682      -0.04453425      -0.02924800
H        0.68155473       2.78005273       1.43772847      -0.00225401      -0.02335614       0.04979790
H        1.42384610       1.37368079       1.69958544       0.06591290      -0.00684845      -0.05854599
