13
Properties=species:S:1:pos:R:3:forces:R:3 Coordinates=T from=T ORCA-job=T run=T Energy:=T 82.2108483=T energy=-81428.72731390399 pbc="F F F"
C        1.26612194      -0.05833458      -0.09462138      -0.01795147      -0.03245246      -0.11239661
H        1.29414183       1.98137201       0.61070695       0.02701992      -0.03125297       0.06892383
Br      -2.53983029      -0.20602566      -0.07240808       0.05112128       0.05237020      -0.00814518
F        2.63725860       0.04271139      -0.39088849       0.02448291       0.07703157      -0.00042698
C        0.67284904       1.33900505      -0.01548109      -0.16200136       0.12445008       0.05621018
H       -0.33420166       1.24171792       0.41928738      -0.06315385      -0.00632365       0.04278630
N        0.61236633      -0.77994103      -1.10330890       0.17786080      -0.16368751      -0.00590888
H       -0.35733987      -0.46862139      -1.19018181      -0.26831898      -0.23163890       0.09667470
H        0.61414563      -1.77729211      -0.93868666      -0.01907393       0.02589729      -0.01645711
C        1.26591886      -0.71866358       1.24458663       0.20312343      -0.08337209      -0.24521282
N        1.38031142      -1.33940994       2.20879704      -0.12087942       0.12039858       0.05922583
C        0.50040604       1.97518587      -1.31354415       0.01527028       0.36462515      -0.01528506
N        0.30669095       2.60216195      -2.26240780       0.16232180      -0.20755158       0.08239360
