15
Properties=species:S:1:pos:R:3:forces:R:3 Coordinates=T from=T ORCA-job=T run=T Energy:=T 40.0110606=T energy=-77291.02347466162 pbc="F F F"
C        1.12566681      -0.17260664      -0.14704828      -0.00275640       0.01475650      -0.01600034
H        1.10836215       1.84438256       0.73246135       0.00272908       0.00718672       0.01227178
Br      -2.60972748      -0.19153168       0.85784235      -0.01468993       0.00306794      -0.00699136
H        2.15040116      -0.13851199      -0.54331887      -0.00251732       0.02604314      -0.00693815
C        0.59388893       1.28344051      -0.05676592       0.00346353       0.01005184       0.00455841
H       -0.47618643       1.23593371       0.20466298       0.01384887      -0.01507572       0.02013458
N        0.34141216      -1.02115846      -1.02645276      -0.00569321      -0.00687500      -0.00133801
H        0.26293078      -0.57756382      -1.93645134       0.01407014      -0.02094553      -0.01930011
H       -0.61062957      -1.06618545      -0.65399665       0.00659053       0.02362768       0.03546125
C        1.15831892      -0.77805053       1.24754532      -0.00691319       0.00698801      -0.01584847
H        1.82355923      -0.21457223       1.91156521       0.00644741      -0.01913968      -0.00588058
H        0.15099085      -0.77613923       1.67581099      -0.00793802      -0.02649660      -0.01113507
H        1.51011429      -1.81120671       1.18588620      -0.00288651       0.00771256       0.01986761
C        0.76652492       2.00653394      -1.30281099      -0.00845221      -0.01317768      -0.00531658
N        0.93431302       2.55819680      -2.30338503       0.00515473      -0.00081198      -0.00151591
