16
Properties=species:S:1:pos:R:3:forces:R:3 Coordinates=T from=T ORCA-job=T run=T Energy:=T 58.7506674=T energy=-11662.734049836623 pbc="F F F"
C        0.00276758      -0.02830715      -0.01780937      -0.02426398       0.01636410      -0.01272071
H        1.53191205       1.37550507      -0.19741718       0.01519835      -0.02322514       0.01929471
F       -1.41131331      -0.05466566      -0.15247248       0.00224408      -0.00980521       0.00097629
F        2.93167824      -0.18044556      -0.10963523       0.00831108       0.01205220      -0.01839316
C        0.46712151       1.42050969       0.06330328       0.00369308       0.00467929       0.00366276
H       -0.08976320       1.97058266      -0.70099909       0.00845307      -0.01204655      -0.01549470
N        0.58867403      -0.56821741      -1.20871952      -0.00709245       0.00290094      -0.01479022
H        0.36052608      -1.55948062      -1.23621534       0.01436156      -0.00753423      -0.00285498
H        1.62582058      -0.50314214      -0.98714212      -0.00293458      -0.01318416       0.00642060
C        0.34632956      -0.81997364       1.23106114      -0.01246023       0.01723784      -0.01544929
H        1.44237423      -0.80397277       1.28374087      -0.01531156      -0.00104390      -0.00568451
H       -0.12487724      -0.39743976       2.12424567       0.03175051       0.00961624       0.01818795
H        0.00226426      -1.85405648       1.10922833      -0.00803198       0.00757507       0.00700260
N        0.22348140       2.04642700       1.37171416      -0.01342395       0.00510140       0.01112007
H        0.39310554       3.04188367       1.26874762      -0.00057280       0.00315718       0.00509758
H        0.95906217       1.72192036       1.99272034      -0.00712931      -0.01210275       0.01574763
