19
Properties=species:S:1:pos:R:3 Energy:=T 2151.0442113=T pbc="F F F"
O        4.24568066      -0.28199923       2.09524099
C        2.88416347      -0.40468417       1.95295635
C        2.27508076      -1.76462164       1.75594650
C        2.06511555      -0.72398893       0.68470246
C        1.13800164       0.43394159       1.02259181
C       -0.37449889       0.34865897       0.78792842
C       -0.06841197       1.31504436      -0.38652876
O        1.29376768       1.48797828       0.05269495
C        1.89643410       0.70719729       2.35461514
H        4.39346419       0.47825376       2.67330457
H        3.02798397      -2.51115886       1.51995322
H        1.40517881      -2.13865624       2.29388686
H        2.28339891      -0.99642422      -0.33940731
H       -0.74224800      -0.65883716       0.54221397
H       -0.95014493       0.80591627       1.59759844
H       -0.11785628       0.87992773      -1.39226817
H       -0.60072899       2.27215605      -0.38755840
H        2.29734190       1.72827617       2.34660412
H        1.37506858       0.54516937       3.30081493
