19
Properties=species:S:1:pos:R:3 Energy:=T 1750.6179048=T pbc="F F F"
C       -3.80223007      -0.65005599       0.64415102
C       -2.54434930      -0.22537313      -0.04414124
C       -2.19718817       1.04982955      -0.74677249
C       -0.80966821       1.35003356      -0.18100553
C       -0.30629992       2.46988125       0.63943308
C       -0.13519025       0.09931261      -0.03707608
O        1.02558313      -0.20060196      -0.23172708
C       -1.25515534      -0.97510281       0.08668308
O       -1.09501521      -1.99486129      -0.86746418
H       -3.76836218      -0.36205404       1.71942644
H       -4.74791503      -0.21029161       0.25562464
H       -3.93031786      -1.74552562       0.53142046
H       -2.09031169       0.80866652      -1.80709855
H       -2.88682239       1.89111560      -0.66561265
H       -0.43299640       2.29246858       1.72334506
H        0.75881948       2.69642899       0.41991384
H       -0.89910281       3.37096595       0.44051665
H       -1.24019548      -1.41939998       1.09752052
H       -0.14942497      -2.19421349      -0.88032574
