19
Properties=species:S:1:pos:R:3 Energy:=T 1382.8918404=T pbc="F F F"
O        1.72740633       0.59480082      -0.28531136
C        0.69283152      -0.00028154       0.48167098
C       -0.31385415       0.98599545       1.11709318
C       -1.43539636       0.36054296       1.97339113
C       -2.66522861       0.78174595       1.65814411
C       -2.62727697       1.67052756       0.47399324
O       -3.48035725       2.76138999       0.27293384
C       -2.05456402       0.97590532      -0.72459930
C       -1.13223213       1.80871922       0.13227930
H        1.94508149       1.46135280       0.06862961
H        0.18186471      -0.67424713      -0.21186941
H        1.14960041      -0.59742734       1.28685079
H        0.25149822       1.65266384       1.79172172
H       -1.20588047      -0.29385885       2.81327065
H       -3.58190649       0.53913983       2.19522058
H       -4.07730303       2.81120850       1.04004335
H       -1.98647544      -0.09744310      -0.62020830
H       -2.32076750       1.31943326      -1.71572669
H       -0.79007984       2.77651194      -0.21266721
