19
Properties=species:S:1:pos:R:3 Energy:=T 126.4098429=T pbc="F F F"
C        1.42931455      -0.02846623      -0.15414757
O        0.03841673      -0.09762172       0.08870656
C       -0.42999373       0.67557789       1.16894794
C       -1.95857470       0.62574421       1.13916755
C        0.09339866       2.09456681       1.22088657
C        0.63960271       2.37340931       2.42265882
C        0.67874376       1.20342670       3.36297499
C        0.08737137       0.09631384       2.50484555
O       -0.00778571      -1.06598691       2.80096992
H        1.99648246      -0.59101459       0.58870622
H        1.58114860      -0.47194801      -1.13544482
H        1.78305102       0.99780444      -0.16364262
H       -2.41344166       1.21167189       1.94319990
H       -2.29076953       1.03330469       0.18074029
H       -2.31392956      -0.40583147       1.22339933
H       -0.14765365       2.85031312       0.47946140
H        1.04946899       3.33095934       2.69052797
H        1.69406645       0.93998414       3.66619348
H        0.11253387       1.36450183       4.28080792
