19
Properties=species:S:1:pos:R:3 Energy:=T 1500.3059915=T pbc="F F F"
C        3.13286040      -2.17273087       2.97893918
C        2.04632514      -2.67213996       2.01635929
C        2.46249100      -3.60398873       0.96563787
C        2.79609520      -4.40070333       0.12947468
C        1.38867169      -1.45262821       1.38010526
O        0.18545650      -1.10328998       2.06878470
C        0.08615423      -1.66979289       0.73050977
C       -0.44947075      -0.72514241      -0.33073852
O        0.51703556       0.05949955      -1.01472603
H        3.73500046      -3.02007312       3.30218038
H        3.77738253      -1.42049615       2.51701677
H        2.65469786      -1.71020186       3.84401307
H        1.29465800      -3.18549176       2.63002296
H        3.14042536      -5.17784192      -0.51065284
H        2.03343892      -0.60692140       1.11560262
H       -0.31036699      -2.69165987       0.74115421
H       -1.07314612      -1.29843897      -1.03247068
H       -1.08695464      -0.00022092       0.19262242
H        1.17525704      -0.51588626      -1.42450667
