19
Properties=species:S:1:pos:R:3 Energy:=T 285.0059013=T pbc="F F F"
O        1.01550160      -0.00091021      -0.74026080
C       -0.09722449      -0.00393421      -0.26622595
C       -0.86679506      -1.28292067       0.06956941
C       -2.27988277      -1.14642238      -0.50228733
C       -2.25833357      -0.79199278      -2.01376692
C       -2.26294048       0.76596018      -2.01568776
C       -2.28708250       1.12394832      -0.50505004
C       -0.87493334       1.27090280       0.06652663
O       -2.89067521      -0.01240220       0.12332230
H       -0.33577467      -2.14763190      -0.33595766
H       -0.91769485      -1.37409241       1.16220187
H       -2.89711009      -2.01673283      -0.26312098
H       -1.42574280      -1.24119629      -2.56240240
H       -3.17761239      -1.14285217      -2.49211485
H       -1.43272717       1.21863100      -2.56507386
H       -3.18398317       1.11028369      -2.49540958
H       -2.90991841       1.99087923      -0.26816634
H       -0.34947223       2.13803965      -0.34106754
H       -0.92649847       1.36442317       1.15891167
