19
Properties=species:S:1:pos:R:3 Energy:=T 2254.2190321=T pbc="F F F"
C        1.44829985      -0.15855821      -0.10154723
O        0.04970452      -0.23393544       0.12588034
C       -0.37049781       0.51537146       1.16285629
C       -1.74805384       0.68846670       1.71660019
C       -1.66122314       2.21464635       1.63520023
C       -0.13244317       2.00484908       1.57983393
O        0.72195189       2.82810920       0.84660781
C        0.16244298       1.56487218       3.02552959
C       -0.53784043       0.25279866       2.63331065
H        1.95331540      -0.89688339       0.54265385
H        1.61106675      -0.47567896      -1.13896651
H        1.83482105       0.85660116       0.05341083
H       -2.63206655       0.07285777       1.62693144
H       -2.04682982       2.65470905       0.71522835
H       -2.02355371       2.75362070       2.51790138
H        0.48411717       3.74404762       1.04304444
H        1.23087153       1.49065758       3.23581926
H       -0.33219277       2.12614964       3.82760379
H       -0.59857068      -0.63675161       3.24483405
