19
Properties=species:S:1:pos:R:3 Energy:=T 630.7407631=T pbc="F F F"
C        1.05743349      -0.39068175       1.03954625
C        0.91554919      -0.03156001      -0.44354964
C        1.49252193       1.38056244      -0.83558088
O        1.64359652       2.36292662       0.14883153
C        2.79995680       0.74135374      -1.38521873
C        2.03791996      -0.61073643      -1.39989841
O        2.71405742      -1.76882265      -1.00472819
C        1.46604160      -0.72986289      -2.75782747
C        0.99525737      -0.82428114      -3.85391864
H        0.76832523      -1.42729498       1.22357156
H        2.05952328      -0.25512693       1.43847643
H        0.39288280       0.22163790       1.64613588
H       -0.12041945      -0.20803369      -0.77085320
H        0.90384356       1.79485296      -1.66545414
H        1.93294331       1.94055367       0.97041284
H        3.11028575       1.11773783      -2.35946265
H        3.66262517       0.77885902      -0.71717605
H        2.83754990      -1.68098523      -0.05336826
H        0.51125562      -0.85192830      -4.79455769
