19
Properties=species:S:1:pos:R:3 Energy:=T 1543.6884328=T pbc="F F F"
C        1.51211578      -0.03335230      -1.00997581
C        0.09328752      -0.10987969      -0.49526392
C       -0.79281666       0.87839764      -0.61118397
C       -2.17408042       0.82377303      -0.01182690
O       -2.43146919      -0.35060928       0.72627724
C       -1.86496742      -1.51785187       0.17014668
C       -0.36197690      -1.37400853       0.13635576
C        0.55959527      -2.52882749       0.21395456
O        0.31925932      -1.75564893       1.36807246
H        2.25753609      -0.17041482      -0.22687153
H        1.70121799      -0.86219271      -1.69569034
H        1.70591728       0.91143032      -1.51491803
H       -0.53320754       1.78554995      -1.15118118
H       -2.33203645       1.64854740       0.69761759
H       -2.92134279       0.95234698      -0.81671910
H       -2.14203456      -2.32728928       0.85234139
H       -2.27116785      -1.71687985      -0.83686520
H        0.17498419      -3.54841566       0.22576684
H        1.53437594      -2.39110547      -0.26017652
