19
Properties=species:S:1:pos:R:3 Energy:=T 182.5458202=T pbc="F F F"
C        0.08376857      -0.23058276      -0.30446543
C        1.58831077      -0.13604152      -0.10825139
C        2.41817215       0.21043388      -1.36666502
O        3.50121376       0.95883445      -0.82779199
C        3.20654993       1.20000220       0.55047287
C        3.94147092       0.18403500       1.43321768
C        3.27284694      -1.17282171       1.33413872
C        2.21386694      -1.35410990       0.56882245
O        1.82854005       1.01207254       0.69249316
H       -0.38200076      -0.40395983       0.67150244
H       -0.26492737       0.73621452      -0.67938071
H       -0.19487774      -1.02481580      -1.00994024
H        2.78335308      -0.67601073      -1.90352238
H        1.83683915       0.84073072      -2.05179071
H        3.45674798       2.23882489       0.78517378
H        4.96405104       0.13815036       1.04477612
H        3.95638343       0.50511399       2.48215629
H        3.68970351      -1.97235822       1.94220452
H        1.73339736      -2.32574252       0.45155956
