19
Properties=species:S:1:pos:R:3 Energy:=T 1587.3926740=T pbc="F F F"
C        1.53432274       0.66377754       0.06555422
O        0.21658420       1.07300346       0.35140551
C       -0.53760086       0.16521174       1.13384885
C       -1.99348630       0.52326274       1.07198571
O       -2.42207666       1.90314438       0.92847671
C       -2.66154345       1.03661533      -0.16736570
C       -4.07274193       0.47736393      -0.19065107
C       -4.17373910      -0.23693647       1.14430977
C       -2.99121980      -0.31777855       1.77174223
H        1.59798690      -0.33892289      -0.38337315
H        1.92281623       1.38139724      -0.65837634
H        2.18196838       0.65456802       0.95314579
H       -0.40489898      -0.85893014       0.73954489
H       -0.21276178       0.13073852       2.18644583
H       -2.15715854       1.29764865      -1.09565783
H       -4.83514413       1.25915959      -0.31542988
H       -4.16392752      -0.20606698      -1.04172279
H       -5.11694313      -0.58791123       1.53252318
H       -2.76702610      -0.87429472       2.66839396
