19
Properties=species:S:1:pos:R:3 Energy:=T 909.5920018=T pbc="F F F"
C       -0.71014725      -2.43621322      -0.35340837
C       -0.95272523      -0.99307466       0.02104386
C       -1.62145663      -0.00578615      -0.98053434
C       -1.04524780       1.09927198      -0.04234976
C       -1.82915635       0.85428161       1.26181393
O       -3.15472706       1.34889742       1.11313548
C       -1.72098750      -0.70134598       1.33351644
C        0.10816167       0.11652395       0.12352150
O        1.30292292       0.18063006       0.10185841
H       -0.14448822      -2.97937862       0.41269962
H       -1.67128661      -2.94949336      -0.49283414
H       -0.15524772      -2.51350867      -1.29482873
H       -1.15538387      -0.03658626      -1.96680554
H       -2.71454801      -0.05753496      -1.02720622
H       -0.90173223       2.14094223      -0.32880332
H       -1.33275876       1.33703302       2.12162178
H       -3.55943510       1.42686665       1.98429353
H       -1.18163417      -1.04165906       2.22728535
H       -2.71924206      -1.15034605       1.31595044
