19
Properties=species:S:1:pos:R:3 Energy:=T 306.7859783=T pbc="F F F"
C       -0.25338792       4.05951245      -1.44777695
C        0.29908195       4.64233825      -2.75328637
O        1.42608531       5.51933123      -2.55288563
C        2.65409511       5.21675967      -3.23854512
C        3.71422240       4.80631751      -2.26592466
C        3.86297793       4.09236951      -1.29399964
C        3.08408811       3.15276633      -0.42866267
O        1.80215010       3.71432315      -0.09553019
C        0.62198994       3.09235094      -0.64305753
H       -0.52594187       4.89470054      -0.79261594
H       -1.16936031       3.51874784      -1.70481016
H        0.62051567       3.87932389      -3.46854459
H       -0.48562495       5.23526465      -3.24041304
H        2.44573559       4.39873480      -3.94087978
H        3.00941691       6.09741159      -3.76621877
H        2.90180558       2.20941448      -0.96036591
H        3.65875725       2.98050335       0.47705315
H        0.96407273       2.23003244      -1.22313748
H        0.04148048       2.70524704       0.20416044
