19
Properties=species:S:1:pos:R:3 Energy:=T 1370.7726016=T pbc="F F F"
O        6.02568262      -1.64076832       2.15122201
C        5.46713513      -0.49416831       2.78830521
C        4.49788398       0.26216281       1.91804858
C        3.37443242       1.10029521       2.48661343
C        3.01864751      -0.18089633       1.78780685
O        2.74655042      -1.33875763       2.49862162
C        2.47045418      -0.08323789       0.34716046
C        1.02801920      -0.08639489       0.12667319
C       -0.16133809      -0.10327975      -0.08064698
H        5.30265846      -2.10483552       1.71209474
H        5.01076565      -0.76913983       3.75402241
H        6.33211153       0.13396657       3.01186567
H        4.86851337       0.52427330       0.93032357
H        3.31694126       1.16980887       3.56551762
H        3.10130558       2.01954857       1.97657026
H        1.83055962      -1.59879528       2.34548220
H        2.87926670       0.83789774      -0.08995185
H        2.93759418      -0.89664990      -0.22608243
H       -1.20324439      -0.14362031      -0.30731622
