19
Properties=species:S:1:pos:R:3 Energy:=T 517.2565460=T pbc="F F F"
O       -0.13366997      -0.87358503      -0.50421829
C        0.21736967       0.25028575      -0.23778109
C       -0.10637238       0.97180249       1.06742245
C       -1.11703860       2.06020021       0.72739382
C       -1.99961143       2.75031157       1.79928854
C       -3.19711705       2.62596406       0.80725173
C       -2.37901236       1.58862176      -0.02582308
C       -2.36255963       1.68641191      -1.52895736
O       -1.36137258       1.68369338      -2.20612673
H        0.84174444       0.82534448      -0.97484338
H       -0.50218030       0.22275783       1.75476340
H        0.80455900       1.41504460       1.48111795
H       -0.62814629       2.82868903       0.11634851
H       -2.15059552       2.15449201       2.70397058
H       -1.70597695       3.76092266       2.09089323
H       -4.14599751       2.26351818       1.20292720
H       -3.38121759       3.54654970       0.24988010
H       -2.72205678       0.58396054       0.24617426
H       -3.37339775       1.72505563      -2.00739199
