19
Properties=species:S:1:pos:R:3 Energy:=T 743.7490987=T pbc="F F F"
C        2.27060666       1.44686080      -0.16662654
C        2.92231701       1.86817195      -1.49103191
C        2.94254847       0.69915992      -2.40833524
C        3.45704708       0.68626833      -3.84431959
C        2.80003129      -0.73810231      -3.84708295
C        1.71715809      -0.03797169      -2.96335251
C        3.62144358      -1.37534933      -2.72010602
O        4.07722307      -2.46924413      -2.55719023
O        3.69481392      -0.38700571      -1.79803537
H        2.87532539       0.65560899       0.28770592
H        2.18315469       2.28748971       0.52982859
H        1.25731148       1.05960731      -0.32945032
H        2.38208641       2.68266604      -1.98115664
H        3.96592350       2.17825992      -1.34761578
H        2.89888498       1.40591259      -4.44119756
H        4.52987706       0.79953299      -3.99720146
H        2.60074760      -1.34504120      -4.72484228
H        1.03261688       0.60312194      -3.51728183
H        1.19471286      -0.63733557      -2.21754950
