19
Properties=species:S:1:pos:R:3 Energy:=T 108.7740152=T pbc="F F F"
C        2.26596755      -0.66822737      -1.21032817
C        1.59121295       0.21362430      -0.15358732
O        1.74875452      -0.44432018       1.08566055
C        1.47636076       0.36004477       2.20614053
C        2.41587853       1.57721887       2.27165121
C        3.81430211       1.17906447       2.75372898
O        4.35798891       1.65229386       3.71822421
C        2.47405002       2.27334750       0.93705199
C        2.08773890       1.64391677      -0.15710838
H        1.89154858      -1.69225337      -1.12118801
H        2.05657414      -0.28735617      -2.21105747
H        3.35047415      -0.71656643      -1.07952648
H        0.52018130       0.25313302      -0.39950666
H        0.42098752       0.68703865       2.23416771
H        1.63915410      -0.29331379       3.06714948
H        2.01513352       2.25783285       3.02673973
H        4.28951595       0.34812132       2.18597332
H        2.85182099       3.29032046       0.89837601
H        2.05746582       2.13810032      -1.12278089
