19
Properties=species:S:1:pos:R:3 Energy:=T 2572.1650360=T pbc="F F F"
O       -2.28596808       1.69692145       0.87177471
C       -1.84436361       0.65384982       1.68159083
C       -0.51924745       0.73240007       2.35621596
C       -0.61294519      -0.13007790       1.09837280
C       -0.44368588      -1.63990095       1.24218746
O       -0.58333854      -2.27643883       2.25710677
C       -0.15067391       0.25116941      -0.29690827
C        1.16111447      -0.34202882      -0.77850516
C        0.99060917       1.15275682      -0.73966737
H       -2.75758230       2.36028366       1.38976478
H       -2.63241913       0.05907575       2.13615866
H        0.02278949       1.66370096       2.25238338
H       -0.41938292       0.22058600       3.30398653
H       -0.20376829      -2.15849230       0.28328396
H       -0.95154491       0.11878711      -1.02408679
H        1.83799378      -0.76787894      -0.04564416
H        1.12887834      -0.88886433      -1.71360424
H        1.54773106       1.72165588      -0.00238985
H        0.84808399       1.67217514      -1.68300079
