19
Properties=species:S:1:pos:R:3 Energy:=T 1371.8050936=T pbc="F F F"
C       -0.02075721       0.04047020      -0.26842845
C        1.46331126       0.06293394      -0.05793556
C        2.24006250       1.32143094       0.37001311
O        2.88316542       0.63738785       1.48490632
C        2.32390480      -0.59587008       1.08239539
C        1.83746005      -1.80000307       1.88870358
C        2.15658110      -2.65434116       0.60667198
C        2.89782338      -1.46506846      -0.06021708
O        2.14654623      -0.73221669      -1.04612322
H       -0.58660670       0.53034423       0.53170532
H       -0.25405038       0.53061673      -1.21747005
H       -0.34899766      -0.99893757      -0.32731102
H        2.97626358       1.67697431      -0.35663413
H        1.62427000       2.14657003       0.73656356
H        2.49863150      -2.00726887       2.73611470
H        0.79843297      -1.76716425       2.23334698
H        2.83280645      -3.49525392       0.78712240
H        1.28597794      -3.00685161       0.04877638
H        3.94194464      -1.59886296      -0.35329006
