19
Properties=species:S:1:pos:R:3 Energy:=T 3320.3769127=T pbc="F F F"
C        1.75711943      -0.57553606      -1.06422485
C        1.89603658       0.35396193       0.14644016
C        3.01364653       1.43810909       0.04475679
C        3.62258302       0.96864354       1.36709828
O        2.68704333       0.87010276       2.43360143
C        2.58139394      -0.14976053       1.44517352
C        2.62669946      -1.58047551       1.86063523
C        1.34004198      -2.12276457       2.36508983
O        2.44598158      -1.91895449       3.23843550
H        0.82440630      -1.15514157      -1.03613230
H        1.73850589       0.03097110      -1.98076035
H        2.58415838      -1.29432370      -1.14580944
H        0.91428899       0.77826267       0.38666443
H        3.70146296       1.28103110      -0.79680815
H        2.65735513       2.47212011       0.01989456
H        4.65631623       1.02256321       1.67139238
H        3.36929479      -2.19245740       1.34145037
H        0.56129527      -1.37225323       2.42635340
H        1.04267034      -3.14500934       2.16270935
