19
Properties=species:S:1:pos:R:3 Energy:=T 1538.5363511=T pbc="F F F"
C        1.53375506       0.36555741       0.01982385
O        0.19659416      -0.08593972       0.13230984
C       -0.51372663       0.48714711       1.21793711
C       -2.03664801       0.51092582       1.08385678
C       -2.76004483      -0.81097780       1.01357474
O       -2.58596298       1.48153420       1.98876472
C       -2.80668227       1.68725094       0.58232056
C       -2.09560572       2.78871812      -0.00004185
C       -1.23472066       3.49554552      -0.45320296
H        2.11852955       0.19029474       0.93698019
H        2.00139450      -0.17718460      -0.80525763
H        1.56976328       1.44049932      -0.18980272
H       -0.32521814      -0.14757002       2.08263426
H       -0.15737122       1.49052664       1.45033000
H       -2.56657096      -1.39171686       1.91878270
H       -3.83641373      -0.63334514       0.92793788
H       -2.42169162      -1.41802438       0.17132620
H       -3.84185157       1.55157127       0.26679322
H       -0.43477105       4.01129779      -0.92223594
