13
Coordinates from ORCA-job run	Energy:      36.6916465
C          0.21902       -0.05238       -0.22548
H          1.67084        1.53388       -0.46741
Br        -1.66608       -0.33514        0.15104
F          2.94456       -0.06831        2.12814
C          0.58085        1.44193       -0.25501
H          0.46026       -0.52233       -1.20255
H          0.81303       -0.57156        0.55559
N          0.30688        2.05116        1.05101
H          0.63038        3.04591        1.03656
H          0.86292        1.56010        1.78789
N         -0.15655        2.12024       -1.31180
O         -0.89778        3.02388       -1.06201
O         -0.00828        1.78587       -2.44852
