13
Coordinates from ORCA-job run	Energy:      34.7318345
C          0.12265       -0.00779       -0.10399
H          1.64618        1.51755       -0.30980
Br        -1.79444       -0.20961        0.13867
Cl         3.60313       -0.38880        1.10800
C          0.54539        1.47011       -0.14366
H          0.41290       -0.51094       -1.05084
H          0.63726       -0.52982        0.72996
N          0.24343        2.11197        1.14043
H          0.58748        3.09970        1.11574
H          0.77463        1.62557        1.89951
N         -0.11856        2.15882       -1.24185
O         -0.83325        3.09358       -1.03901
O          0.06192        1.79500       -2.36585
