10
Coordinates from ORCA-job run	Energy:      64.0037153
C          0.97820       -0.00983       -0.05686
H          1.50681        1.97984        0.41342
Cl        -1.90402       -0.34016        0.53279
Br         2.85920       -0.23333       -0.49654
C          0.61882        1.48539        0.00356
H          0.37472       -0.55294       -0.82143
H          0.79502       -0.48327        0.94396
H         -0.23783        1.74150        0.68249
C          0.33554        2.04345       -1.32094
N          0.10771        2.53227       -2.34411
