16
Coordinates from ORCA-job run	Energy:      69.0324410
C          0.36018       -0.03262        0.00966
H          1.68162        1.70659       -0.06307
Cl        -1.38669       -0.44695        0.11700
H          2.13238       -0.41933        1.06554
C          0.58645        1.50781       -0.03158
H          0.73544       -0.43449       -0.95913
N          1.12505       -0.70016        1.07925
O          0.59571       -0.42970        2.29717
O          1.05490       -2.04185        0.89900
N          0.00346        2.18242        1.13350
H          0.12721        3.21676        1.03170
H          0.52896        1.92302        1.99601
C         -0.00980        2.10196       -1.31781
H          0.44892        1.62432       -2.21006
H         -1.10952        1.95539       -1.35568
H          0.20107        3.19136       -1.36979
