16
Coordinates from ORCA-job run	Energy:      56.2098379
C          1.03286        0.01008        0.02552
H          1.76468        2.00560        0.52542
Cl        -2.63598       -0.75563       -0.19254
Cl         2.59537       -0.30933       -0.78651
C          0.82414        1.54356        0.15001
H          0.22891       -0.41338       -0.61689
N          1.00275       -0.67298        1.30131
O          1.79192       -0.40049        2.15754
O          0.19886       -1.52987        1.50503
C         -0.27064        1.94492        1.15171
H         -1.24975        1.49944        0.88905
H          0.01277        1.62430        2.17761
H         -0.37243        3.05034        1.17368
N          0.51794        2.09026       -1.17654
H          0.42312        3.12954       -1.12409
H         -0.39555        1.70271       -1.51214
