15
Coordinates from ORCA-job run	Energy:      97.3028105
C          0.91568       -0.02892       -0.00106
H          1.68291        1.90803        0.41712
Br        -2.30664       -0.39740        0.11880
F          2.11108       -0.22507       -0.66404
C          0.69779        1.51543        0.12594
H          0.15281       -0.50605       -0.64466
N          0.97774       -0.75814        1.25140
O          0.96277       -0.19863        2.30533
O          1.09893       -1.94523        1.22149
C         -0.21057        2.03525        1.16694
N         -0.89496        2.54152        1.96320
C          0.28640        2.07895       -1.23508
H          1.01684        1.76542       -2.00681
H         -0.72440        1.70693       -1.52590
H          0.25770        3.18576       -1.19003
