14
Coordinates from ORCA-job run	Energy:      22.7937709
C          0.16216       -0.08613        0.20928
H          1.42656        1.67083        0.43738
Cl        -1.53232       -0.49834       -0.19757
Cl         3.56523       -0.06701       -1.62321
C          0.37539        1.44312        0.15520
H          0.82859       -0.56008       -0.54339
H         -0.30262        1.94340        0.88063
N          0.48198       -0.64258        1.51582
O          0.83525        0.05590        2.41850
O          0.40691       -1.82189        1.68689
C          0.13471        2.02167       -1.23957
H          0.82286        1.55332       -1.97477
H         -0.91320        1.85714       -1.56515
H          0.32553        3.11553       -1.22355
