13
Coordinates from ORCA-job run	Energy:      72.5237743
C          0.11704       -0.07040        0.08425
H          1.62610        1.51489        0.03307
Cl        -1.64051       -0.31982       -0.03693
F          2.91713       -0.33362       -0.17021
C          0.50956        1.43874        0.02531
H          0.57658       -0.55528       -0.80933
C          0.60690       -0.76195        1.28409
N          0.98842       -1.31703        2.22376
C          0.07646        2.16191        1.23758
N         -0.25204        2.76330        2.18555
N          0.03162        2.03651       -1.19965
O         -0.25680        3.19061       -1.22694
O          0.20533        1.47137       -2.23265
