14
Coordinates from ORCA-job run	Energy:      68.4595158
C          0.57576        0.08326       -0.06204
H          1.70279        1.94476       -0.07604
Cl        -1.10603       -0.52278        0.02646
H          1.41168       -1.70813        0.99601
C          0.63412        1.63793       -0.02457
H          0.99203       -0.24411       -1.03917
C          1.38863       -0.62281        0.99723
N          2.09487        0.00793        1.86085
N          0.04129        2.20859        1.19162
H          0.58476        1.95118        2.04395
H         -0.95218        1.90696        1.30566
N         -0.03502        2.19506       -1.20222
H          0.05932        3.23677       -1.18857
H         -1.05474        1.96547       -1.18882
