14
Coordinates from ORCA-job run	Energy:      61.9107405
C          0.22887       -0.12363        0.03221
H          1.62215        1.65533        0.03176
Cl        -1.51664       -0.43544       -0.14323
Cl         3.24875       -0.29203       -0.21100
C          0.53089        1.41305        0.02512
H          0.70705       -0.61011       -0.85316
C          0.63144       -0.78113        1.30011
N          0.89877       -1.24885        2.32691
C         -0.04827        2.12737        1.24620
H         -1.13595        1.93135        1.35098
H          0.46384        1.79549        2.17343
H          0.10854        3.22314        1.15183
C          0.00240        2.05633       -1.18238
N         -0.40313        2.59362       -2.12235
