14
Coordinates from ORCA-job run	Energy:     141.2193377
C          0.88658       -0.08224       -0.02100
H          1.66151        1.82516        0.29681
Cl        -2.05370       -0.19697        0.33051
Cl         2.53247       -0.33497       -0.65432
C          0.66516        1.46278        0.08784
H          0.22536       -0.55963       -0.78653
C          0.86380       -0.78457        1.27627
N          0.87407       -1.31400        2.30722
C         -0.09761        2.08503        1.21196
N         -0.65909        2.66081        2.04951
C          0.20034        2.04615       -1.24959
H          0.84293        1.63951       -2.05356
H         -0.85702        1.77601       -1.46349
H          0.29139        3.15085       -1.25090
