12
Coordinates from ORCA-job run	Energy:     122.7939146
C          1.01714       -0.01723       -0.01132
H          1.58939        1.96346        0.40825
Br        -2.02421       -0.26102        0.08124
F          2.32933       -0.08974       -0.34518
C          0.65541        1.46853        0.09106
H          0.44179       -0.50320       -0.83837
H         -0.13295        1.71557        0.84959
C          0.95422       -0.75019        1.25912
N          0.92190       -1.30984        2.27205
N          0.25998        1.96592       -1.23103
H          0.56019        2.95579       -1.35826
H         -0.78614        1.93934       -1.31580
