12
Coordinates from ORCA-job run	Energy:      52.8158021
C          0.12318       -0.12136        0.18169
H          1.21127        1.63906        0.66748
F         -1.15125       -0.51555       -0.17479
Cl         3.03692        0.65479       -1.61541
C          0.22539        1.39775        0.23231
H          0.83753       -0.48080       -0.59075
H         -0.56040        1.75925        0.90714
C          0.44759       -0.72208        1.48597
N          0.66836       -1.16841        2.51897
N          0.03105        1.95149       -1.09899
H          0.88334        1.73012       -1.62312
H          0.00214        2.97278       -1.02440
