13
Coordinates from ORCA-job run	Energy:      93.6756256
C          0.19654       -0.05260        0.07242
H          1.69940        1.70406        0.19638
Br        -1.72464       -0.23590       -0.03264
Br         3.31264       -0.39274       -0.41124
C          0.60414        1.47578        0.09621
H          0.60989       -0.52930       -0.85457
C          0.55710       -0.76151        1.29568
N          0.83309       -1.31182        2.29087
C         -0.08205        2.14540        1.21190
N         -0.52019        2.62620        2.16457
N          0.16845        2.04725       -1.16136
H          0.34198        3.07738       -1.20227
H         -0.85196        1.89522       -1.30567
