12
Coordinates from ORCA-job run	Energy:      30.5647475
C          0.97165       -0.04313        0.10211
H          1.55012        1.98468        0.61627
Cl        -2.44438        0.03527       -0.82012
Cl         2.45414       -0.36840       -0.83819
C          0.67999        1.44911        0.17664
H          0.13544       -0.57363       -0.38560
H         -0.20911        1.60853        0.82881
C          1.16391       -0.59369        1.44541
N          1.26361       -1.01779        2.52934
N          0.41405        1.98535       -1.15773
H          0.27934        3.01224       -1.08984
H         -0.48917        1.59354       -1.50089
