16
Coordinates from ORCA-job run	Energy:      91.4171450
C          0.34201       -0.01370        0.14075
H          1.74265        1.66476        0.21837
Cl        -2.43221       -0.14038        0.39838
F          2.78155       -0.30020       -0.87847
C          0.66117        1.49438        0.11112
H          0.32092       -0.56704       -0.82264
C          0.76782       -0.82169        1.36076
H          1.86892       -0.84192        1.50177
H          0.26583       -0.38187        2.24316
H          0.39834       -1.86584        1.23935
C         -0.01683        2.19647        1.20739
N         -0.57228        2.74571        2.06458
C          0.21920        2.06978       -1.24388
H          0.82507        1.59368       -2.04306
H         -0.85489        1.87982       -1.46123
H          0.40891        3.16140       -1.27199
