14
Coordinates from ORCA-job run	Energy:      41.4900699
C          0.96401       -0.08083        0.05589
H          2.11967        1.71666        0.52990
Br        -2.77808        0.23424       -0.79442
H          1.83763       -0.41626       -0.54035
C          1.08062        1.44551        0.25154
H          0.05062       -0.31537       -0.52620
H          0.87171        1.91964       -0.73963
C          0.87862       -0.88103        1.35600
H          1.73134       -0.65269        2.02728
H         -0.07889       -0.65127        1.87249
H          0.87033       -1.96666        1.12543
N          0.19053        1.96316        1.27361
O         -0.67266        2.73291        0.97881
O          0.40437        1.73766        2.42598
