18
Coordinates from ORCA-job run	Energy:      14.8389874
C          0.30700       -0.05650        0.13872
H          1.74937        1.57257        0.22691
Br        -3.24808       -0.48048        0.65725
F          3.40752       -0.34918       -1.33932
C          0.64768        1.44717        0.12514
H          0.76305       -0.54647       -0.74791
C          0.81041       -0.79377        1.38001
H          1.91448       -0.70265        1.46039
H          0.33414       -0.40399        2.30182
H          0.54596       -1.86769        1.29400
C         -0.04808        2.20576        1.26507
H         -1.15072        2.09358        1.19217
H          0.28753        1.84001        2.25619
H          0.20511        3.28556        1.21312
C          0.22600        2.04782       -1.22103
H          0.75221        1.53437       -2.05340
H         -0.87005        1.94236       -1.37064
H          0.49202        3.12558       -1.26061
