16
Coordinates from ORCA-job run	Energy:      53.1820149
C          0.44447       -0.03526       -0.01050
H          1.10844        1.69615       -1.13386
Cl        -0.39910       -0.76387       -1.40914
H          3.95819       -0.15050        0.61685
C          0.57190        1.50274       -0.17769
H          1.46904       -0.46561        0.00402
C         -0.25635       -0.45917        1.28422
H          0.28213       -0.05666        2.16802
H         -1.30866       -0.10892        1.30646
H         -0.26264       -1.56763        1.36002
N          1.35881        2.07386        0.91531
H          1.47237        3.10079        0.75257
H          2.31363        1.64871        0.91751
N         -0.72917        2.17611       -0.24057
H         -1.25102        2.07004        0.65828
H         -1.30320        1.80285       -1.02996
