16
Coordinates from ORCA-job run	Energy:      55.2320113
C          0.00250       -0.16551        0.04638
H          1.51191        1.34516       -0.10627
Br        -1.93404       -0.37230        0.03952
F          3.44958        0.55688        0.51580
C          0.43409        1.31127       -0.00552
H          0.40300       -0.65247       -0.87094
C          0.60362       -0.88515        1.25061
H          1.69206       -0.72188        1.28136
H          0.17113       -0.51047        2.20015
H          0.43066       -1.97470        1.16261
C          0.09380        2.15331        1.22496
H         -0.99027        2.12423        1.45230
H          0.67848        1.78240        2.09532
H          0.41119        3.20619        1.05535
C          0.00362        1.95037       -1.23798
N         -0.31187        2.49836       -2.20395
