16
Coordinates from ORCA-job run	Energy:      49.5879386
C          0.36313        0.01933        0.04917
H          1.53297        1.85146        0.11778
F         -0.95774       -0.38530       -0.06088
Br         3.68077       -1.84047       -0.83249
C          0.45935        1.56388        0.06384
H          0.91541       -0.35191       -0.84233
N          0.96788       -0.57863        1.23841
H          1.01002       -1.61464        1.10239
H          0.35182       -0.41234        2.06598
C         -0.23753        2.17336        1.29822
H         -1.31385        1.89956        1.32029
H          0.24430        1.83156        2.23654
H         -0.14750        3.28071        1.27329
N         -0.09008        2.09640       -1.18055
O         -1.01200        2.85692       -1.17516
O          0.39971        1.78531       -2.22386
