12
Coordinates from ORCA-job run	Energy:      49.9281993
C          0.09618       -0.05836        0.03875
H          1.66452        1.39694        0.06621
Cl        -1.68208       -0.16853        0.02862
F          3.22355       -0.21274       -0.11550
C          0.56866        1.39040        0.00042
H          0.49436       -0.60334       -0.84725
H          0.16830        1.92600        0.88402
N          0.58317       -0.66436        1.27352
H          1.61387       -0.65675        1.25308
H          0.36582       -1.67958        1.28671
C          0.17604        2.08406       -1.22228
N         -0.17699        2.62379       -2.18324
