16
Coordinates from ORCA-job run	Energy:      47.6470277
C          0.05242       -0.09590        0.05438
H          1.61368        1.42580       -0.02425
F         -1.32931       -0.16293       -0.00163
F          3.71440       -0.18053        0.00869
C          0.50159        1.38191       -0.00376
H          0.46280       -0.64242       -0.82485
N          0.51309       -0.74674        1.27899
H          1.55553       -0.81832        1.26686
H          0.12277       -1.71625        1.31340
C          0.04549        2.14625        1.25445
H         -1.06172        2.11665        1.35597
H          0.49997        1.70417        2.16537
H          0.37358        3.20628        1.19727
N         -0.00153        2.00073       -1.22677
O         -0.72919        2.94551       -1.18738
O          0.32851        1.56453       -2.28689
