13
Coordinates from ORCA-job run	Energy:      75.2905897
C          0.17454       -0.09146        0.08604
H          1.61208        1.54106        0.26465
Cl        -1.60080       -0.34550        0.05002
F          2.86571       -0.10843       -0.55280
C          0.53208        1.41145        0.09145
H          0.58077       -0.57225       -0.83946
N          0.74148       -0.73040        1.28336
H          1.74554       -0.99646        1.15246
H          0.24945       -1.62338        1.47745
C         -0.10089        2.13423        1.18775
N         -0.58103        2.67819        2.08755
C          0.23471        2.05026       -1.19108
N          0.01301        2.58708       -2.18914
