13
Coordinates from ORCA-job run	Energy:      24.6647232
C          0.86620        0.18604       -0.17125
H          0.06679        0.92457        1.71475
F         -1.05117       -1.17319        2.98055
H          1.46499        0.57960       -1.02184
C          0.66705        1.30140        0.85909
H         -0.11939       -0.15692       -0.55795
H          1.66392        1.61477        1.24569
N          1.57622       -0.93951        0.42826
H          1.70346       -1.67727       -0.30133
H          0.99247       -1.34700        1.19410
N         -0.01213        2.43273        0.26274
O         -1.11619        2.30914       -0.17380
O          0.51745        3.50169        0.23400
