15
Coordinates from ORCA-job run	Energy:      59.1546371
C          1.30936        0.13117        0.30862
H          1.81729        2.13567       -0.29817
F         -1.94153       -1.07305       -1.80984
H          2.23035        0.07797        0.92908
C          0.92906        1.61375        0.12442
H          1.53890       -0.32815       -0.67906
N          0.25700       -0.62478        0.98531
H          0.59977       -1.60024        1.14148
H         -0.58855       -0.68794        0.37758
N          0.59501        2.22479        1.40583
O         -0.47671        2.72118        1.59007
O          1.40510        2.24498        2.28141
N         -0.16306        1.75499       -0.84747
H         -0.33440        2.77133       -1.02874
H         -1.04817        1.33325       -0.48766
