14
Coordinates from ORCA-job run	Energy:     153.7071478
C          0.53421       -0.10046        0.10108
H          1.26460        1.71899       -0.87996
F         -1.03514       -0.06707       -2.20694
F          1.36722       -0.34945        1.18271
C          0.48067        1.45972       -0.14528
H         -0.46873       -0.49003        0.39025
N          1.06855       -0.86336       -1.02602
O          2.01850       -0.43528       -1.61221
O          0.91966       -2.04907       -1.01192
N          0.76728        2.13034        1.09341
O          1.75035        2.79392        1.19104
O          0.01976        2.04056        2.02040
C         -0.79452        2.06744       -0.60845
N         -1.74515        2.62806       -0.97063
