15
Coordinates from ORCA-job run	Energy:      59.9335893
C          0.08510       -0.02564       -0.20529
H          1.58676        1.54054       -0.31000
Br        -1.83544       -0.25866        0.04738
Br         3.53835       -0.53033        1.38225
C          0.48391        1.47308       -0.16598
H          0.58713       -0.53541        0.64497
N          0.50052       -0.69070       -1.43212
O          1.07196       -0.10051       -2.29833
O          0.30487       -1.86301       -1.55780
N          0.14737        2.05787        1.13321
H          0.46029        3.05621        1.14988
H          0.68052        1.55738        1.88178
N         -0.17424        2.22262       -1.24010
H          0.19998        3.19871       -1.25932
H         -1.20339        2.27989       -1.06187
