13
Coordinates from ORCA-job run	Energy:      49.3097784
C          0.93274       -0.11660        0.03769
H          1.56441        1.90340       -0.48605
F         -2.32103        0.27824       -0.38020
Cl         2.49104       -0.45573        0.85160
C          0.67966        1.40683       -0.02409
H          0.12755       -0.60690        0.61988
H         -0.19636        1.60306       -0.67725
N          0.95714       -0.69771       -1.29243
O          1.65347       -0.22499       -2.13789
O          0.49604       -1.78541       -1.45986
N          0.41640        1.99857        1.28263
O          0.19252        3.16939        1.34815
O          0.37078        1.33583        2.26910
