12
Coordinates from ORCA-job run	Energy:     164.9169644
C          1.15222       -0.09830       -0.00442
H          1.81684        1.96632        0.14696
Cl        -1.94630        0.12498       -0.11660
Cl         2.91623       -0.33146        0.03195
C          0.85820        1.43093        0.02330
H          0.16361        1.77161        0.83005
H          0.42771        1.79560       -0.93641
N          0.60461       -0.73881       -1.20509
O          0.65915       -0.17076       -2.25675
O          0.43049       -1.92128       -1.21600
C          0.66315       -0.77083        1.23956
N          0.29550       -1.31738        2.18898
