18
Coordinates from ORCA-job run	Energy:      52.4948097
C          0.22668       -0.04393       -0.07889
H          1.68175        1.59452       -0.26221
Cl        -2.93284       -0.75262       -1.01966
F          3.50303       -0.19228        0.84237
C          0.59264        1.46972       -0.08345
N          0.82591       -0.78295       -1.18639
O          1.63772       -0.27677       -1.90726
O          0.52620       -1.92690       -1.35971
C          0.51367       -0.73151        1.19352
N          0.71282       -1.27105        2.19762
C          0.28975        2.16501        1.25668
H         -0.78072        2.06433        1.52755
H          0.91670        1.72992        2.06575
H          0.55274        3.24433        1.19135
C         -0.19835        2.16866       -1.19529
H          0.01696        1.72379       -2.18832
H         -1.29134        2.07987       -1.00448
H          0.06108        3.24900       -1.24106
