17
Coordinates from ORCA-job run	Energy:      53.6130344
C          0.18148       -0.06004        0.00434
H          1.67357        1.54536       -0.10906
Br        -3.19527       -0.33040       -0.57418
Cl         4.09797       -0.13697        0.21403
C          0.57776        1.43674        0.03780
H          0.06176        1.93961       -0.80791
N          0.74362       -0.71700       -1.17180
O          0.80377       -0.11700       -2.20071
O          0.76603       -1.91254       -1.21662
C          0.50493       -0.82609        1.29989
H          1.58908       -0.78815        1.52774
H         -0.06609       -0.39720        2.14831
H          0.18234       -1.88487        1.21565
C          0.20387        2.16319        1.32936
H         -0.87989        2.05577        1.54348
H          0.79598        1.76364        2.17915
H          0.45003        3.24096        1.23002
