19
Coordinates from ORCA-job run	Energy:     108.5973366
C          0.04996       -0.02910       -0.01598
H          1.66146        1.46913       -0.09954
F         -1.33490       -0.05361       -0.13038
H          3.39685       -0.39324       -0.02753
C          0.55789        1.46535        0.02033
N          0.65789       -0.76443       -1.15130
O          0.21513       -0.25956       -2.32782
O          0.24515       -2.05593       -1.12600
C          0.40519       -0.76680        1.29716
H          1.49937       -0.75646        1.47594
H         -0.11579       -0.30774        2.16301
H          0.05680       -1.82062        1.27505
C          0.27967        2.18908        1.34671
H         -0.80657        2.20278        1.57412
H          0.83385        1.71693        2.18410
H          0.64724        3.23616        1.28190
N         -0.03796        2.28139       -1.04242
H         -1.08430        2.26347       -0.99970
H          0.29689        2.02685       -1.99690
