16
Coordinates from ORCA-job run	Energy:      54.3484958
C          0.09530       -0.10339       -0.08419
H          1.43703        1.59694        0.21622
F         -1.24793       -0.33117       -0.32392
Br         4.18062       -0.31705        0.02940
C          0.35658        1.42280       -0.00136
H         -0.23463        1.85692        0.83023
N          0.86699       -0.75133       -1.14634
O          1.38951       -0.11066       -2.00558
O          0.84654       -1.94257       -1.24442
C          0.43661       -0.72862        1.28188
H          0.23668       -1.82211        1.27465
H          1.49962       -0.56325        1.54801
H         -0.20344       -0.27956        2.07465
N          0.00916        2.10722       -1.24531
H          0.22510        3.12268       -1.12709
H         -1.01752        2.01083       -1.41249
