15
Coordinates from ORCA-job run	Energy:      51.2486704
C          0.27660       -0.02076        0.05258
H          1.84020        1.49840        0.22856
F         -1.09211       -0.05030       -0.20082
H          2.03924       -0.73928       -0.81791
C          0.74830        1.45528        0.12482
H          0.44927        1.94677       -0.83145
N          1.01515       -0.68663       -1.04242
O          0.85014       -0.01435       -2.20699
O          0.53047       -1.93627       -1.24065
C          0.53375       -0.79118        1.36441
H          1.61629       -0.79513        1.62071
H         -0.04358       -0.36513        2.21312
H          0.20274       -1.84441        1.23115
C          0.14937        2.22260        1.22688
N         -0.35500        2.82318        2.08405
