18
Coordinates from ORCA-job run	Energy:     170.8694038
C         -0.05454       -0.14109       -0.20784
H          1.48826        1.37918       -0.59146
Cl        -1.74208       -0.33833       -0.77400
F          3.39517       -0.08018        0.69390
C          0.43248        1.37110       -0.23039
N          0.78709       -0.95061       -1.09342
O          0.96500       -0.61072       -2.22444
O          1.21171       -2.01325       -0.73805
N         -0.00681       -0.68222        1.16502
H          0.97670       -0.72736        1.51815
H         -0.41693       -1.64389        1.19661
C          0.51158        2.05350        1.14945
H         -0.47672        2.06115        1.65245
H          1.25411        1.53870        1.79362
H          0.86444        3.09920        1.02442
N         -0.38142        2.19662       -1.11545
O         -1.50714        2.47241       -0.83168
O          0.11346        2.69087       -2.08434
