17
Coordinates from ORCA-job run	Energy:      80.0434905
C          0.04153       -0.09463       -0.07000
H          1.54951        1.47732       -0.20129
F         -1.34206       -0.18791       -0.10501
F          3.69587       -0.01476        0.10647
C          0.44374        1.41309       -0.06841
N          0.58803       -0.80873       -1.22431
O          1.28370       -0.25777       -2.02347
O          0.35521       -1.97223       -1.36316
N          0.50709       -0.72801        1.16554
H          1.55049       -0.76386        1.18970
H          0.13235       -1.70279        1.22809
N          0.10057        2.04961        1.18929
O          0.95948        2.52355        1.87407
O         -1.03641        2.10622        1.55410
N         -0.19679        2.11623       -1.18360
H          0.10094        3.11819       -1.17535
H         -1.23869        2.09724       -1.06826
