16
Coordinates from ORCA-job run	Energy:     235.9587646
C          0.13174       -0.04140       -0.20371
H          1.46344        1.63288       -0.84931
Cl        -1.54074       -0.35092       -0.81001
F          2.94445        0.09876        0.48063
C          0.53061        1.51262       -0.27053
N          1.04414       -0.82333       -1.04181
O          1.35385       -0.40657       -2.11847
O          1.18291       -1.99029       -0.82885
N          0.14519       -0.54470        1.18778
H          1.10176       -0.73627        1.55770
H         -0.36609       -1.45514        1.24518
N          0.77703        2.12378        1.03698
H          1.67283        1.77456        1.45017
H         -0.00335        1.95429        1.71206
C         -0.46420        2.32598       -0.98772
N         -1.26914        2.95887       -1.53009
