16
Coordinates from ORCA-job run	Energy:      52.4167572
C         -0.03681       -0.09126        0.03596
H          1.60543        1.36602        0.14915
F         -1.41969       -0.04822       -0.05620
Cl         3.91506       -0.17125       -0.79681
C          0.50541        1.36002       -0.00328
H          0.04311        1.91280        0.84430
N          0.47966       -0.91406       -1.05802
O          0.19400       -0.65684       -2.18757
O          1.11377       -1.90243       -0.83470
N          0.31451       -0.67118        1.33815
H          1.35385       -0.76531        1.42626
H         -0.12013       -1.61766        1.43519
C          0.18926        2.13140       -1.28569
H          0.73179        1.70432       -2.15290
H         -0.90243        2.12942       -1.48643
H          0.52736        3.18324       -1.17346
