15
Coordinates from ORCA-job run	Energy:      79.8005993
C          0.14610       -0.08339       -0.41739
H          1.38258        1.25133       -1.63049
F         -1.08341       -0.06233       -1.05755
H          3.31789       -0.29036        0.34419
C          0.86584        1.27111       -0.64906
H          1.65058        1.43086        0.12617
N          0.92834       -1.16734       -1.00309
O          1.12639       -1.18194       -2.18145
O          1.31550       -2.07730       -0.33701
N         -0.07451       -0.29305        1.02268
H          0.84888       -0.37867        1.51200
H         -0.59169       -1.19192        1.16874
N         -0.06729        2.38473       -0.65875
O         -0.73861        2.62042        0.29574
O         -0.16273        3.06471       -1.63525
