13
Coordinates from ORCA-job run	Energy:      55.3340475
C          0.05086       -0.01154        0.04463
H          0.62265        1.88116        0.96682
F         -1.28182        0.13572        0.39530
Cl         4.53939       -0.15508        0.43664
C          0.69095        1.38316       -0.02389
H          0.16537        2.02006       -0.76684
H          1.76098        1.30533       -0.31203
N          0.13404       -0.69348       -1.24287
O         -0.08065       -0.06329       -2.23531
O         -0.08809       -1.86671       -1.27517
N          0.73032       -0.79025        1.08449
H          1.72218       -0.96833        0.80426
H          0.25225       -1.71088        1.21551
