16
Coordinates from ORCA-job run	Energy:      71.3175041
C          0.02621       -0.09401       -0.05787
H          1.61021        1.41892       -0.05068
Br        -1.91563       -0.14807       -0.22894
F          3.70340       -0.07044        0.20586
C          0.50241        1.37975        0.00525
H          0.09725        1.93206       -0.87175
N          0.60887       -0.75912       -1.22257
O          0.57147       -0.20892       -2.28331
O          0.74226       -1.94643       -1.20798
N          0.40756       -0.79315        1.17477
H          1.44776       -0.83043        1.26356
H          0.03119       -1.76907        1.17601
C          0.08319        2.10388        1.28781
H         -1.01829        2.09509        1.41636
H          0.55796        1.62547        2.17109
H          0.42742        3.15848        1.24514
