13
Coordinates from ORCA-job run	Energy:     105.1415797
C          0.07181       -0.06909       -0.15714
H          1.55067        1.62392       -0.51458
Cl        -1.65971       -0.30544       -0.35820
Br         3.06166       -0.25832        0.95335
C          0.50594        1.44628       -0.17870
H          0.29936       -0.52176        0.84466
C          0.72345       -0.79790       -1.25278
N          1.22529       -1.34946       -2.13736
N          0.35105        2.00002        1.17038
H          0.42778        3.03886        1.16066
H          1.15374        1.68100        1.76728
C         -0.28618        2.22051       -1.12772
N         -0.99062        2.80915       -1.82806
