14
Coordinates from ORCA-job run	Energy:      98.8591431
C          0.15183       -0.05299       -0.07488
H          1.68597        1.61795       -0.00524
Cl        -1.61122       -0.18882        0.04722
Cl         3.15854       -0.44956        0.26806
C          0.58650        1.44788       -0.02401
H          0.57229       -0.57114        0.82325
C          0.53827       -0.73326       -1.33070
N          0.77882       -1.28336       -2.31569
N          0.08192        2.04972        1.19926
O         -0.50347        3.08647        1.18298
O          0.28118        1.51301        2.25295
N          0.08870        2.12606       -1.22190
H          0.27727        3.14875       -1.15285
H         -0.93985        1.97979       -1.30565
