13
Coordinates from ORCA-job run	Energy:      57.8103977
C          0.14977       -0.07578       -0.10522
H          1.61955        1.54448       -0.24717
Br        -1.76880       -0.34501        0.00580
Br         3.29845       -0.37153        0.53641
C          0.52608        1.42391       -0.10542
H          0.59690       -0.57483        0.78686
C          0.63970       -0.74145       -1.33754
N          1.02271       -1.26026       -2.29826
C          0.20318        2.08220        1.17503
N         -0.03533        2.63954        2.16106
N         -0.13680        2.13068       -1.19571
H          0.14842        3.13539       -1.15576
H         -1.17245        2.10750       -1.05831
