12
Coordinates from ORCA-job run	Energy:     131.7775315
C          1.09336       -0.02983       -0.04911
H          1.78548        2.01319       -0.08574
Br        -2.15385       -0.21157        0.27777
Cl         2.81651       -0.33388        0.27826
C          0.80900        1.50110       -0.06053
H          0.54987       -0.52755        0.79032
H          0.30119        1.81310        0.88278
C          0.79435       -0.69062       -1.32970
N          0.56488       -1.22885       -2.32750
N          0.06380        1.98920       -1.23089
H          0.14479        3.03278       -1.25967
H         -0.95404        1.78161       -1.15226
