14
Coordinates from ORCA-job run	Energy:      83.7694203
C          0.19639       -0.11337        0.04642
H          1.60978        1.54575        0.04381
Cl        -1.51096       -0.46767        0.41177
F          2.82861       -0.21489       -0.27409
C          0.52982        1.39663        0.01417
H          0.79089       -0.56261        0.87718
C          0.51025       -0.77884       -1.22929
N          0.72208       -1.27535       -2.26305
C          0.03377        2.10905        1.19503
N         -0.32066        2.74256        2.09487
C          0.06339        2.09951       -1.26512
H          0.62506        1.68760       -2.13266
H         -1.01829        1.95684       -1.43981
H          0.28775        3.18347       -1.20927
