15
Coordinates from ORCA-job run	Energy:      61.8699065
C          0.27358       -0.07220       -0.24149
H          1.67851        1.52612       -0.50932
Br        -1.55159       -0.50351        0.20862
F          2.29425       -0.11566        2.18076
C          0.59398        1.42858       -0.26572
H          0.87804       -0.54030        0.53285
C          0.67722       -0.71718       -1.48274
N          1.03068       -1.21921       -2.46144
N          0.33795        2.00989        1.05081
H          0.72629        2.97774        1.08871
H          0.87675        1.49428        1.76577
C         -0.22605        2.18736       -1.31344
H         -0.07138        1.77461       -2.33468
H         -1.30214        2.14140       -1.04508
H          0.08879        3.24941       -1.31828
