12
Coordinates from ORCA-job run	Energy:      31.2096232
C          0.29321       -0.08270       -0.22368
H          1.80158        1.35372       -0.80960
Cl        -1.34901       -0.11135        0.48867
Br         3.14601       -0.04683        1.71987
C          0.78192        1.36643       -0.37429
H          0.94930       -0.58421        0.46870
H          0.84768        1.81140        0.64527
C          0.30386       -0.84950       -1.47493
N          0.30158       -1.48200       -2.44520
N         -0.09339        2.17756       -1.19483
O         -0.57527        3.17419       -0.74694
O         -0.30296        1.88130       -2.33136
