15
Coordinates from ORCA-job run	Energy:      82.8601576
C          0.12630       -0.03597       -0.17421
H          1.57524        1.64882       -0.36306
F         -1.24012       -0.19241       -0.23319
Cl         2.98531       -0.35584        0.96902
C          0.49758        1.47260       -0.16802
H          0.43056       -0.53817        0.76094
C          0.69415       -0.73691       -1.33301
N          1.12215       -1.32104       -2.23427
C          0.19453        2.06466        1.22223
H         -0.78182        1.70905        1.60928
H          0.98510        1.73899        1.93859
H          0.19849        3.17252        1.20727
N         -0.27591        2.13101       -1.22636
H         -0.13413        3.16252       -1.18659
H         -1.29685        1.94242       -1.10375
