12
Coordinates from ORCA-job run	Energy:      29.2871368
C          0.56061       -0.02140        0.20552
H          1.81436        1.72389       -0.10804
Cl        -1.16767       -0.43981        0.40691
H          0.45565       -1.36882       -1.60441
C          0.73887        1.49944        0.06442
H          1.11456       -0.37597        1.10015
H          0.15830        1.87777       -0.80666
C          1.10271       -0.74055       -1.00018
N          2.34378       -0.64746       -1.31134
N          0.32322        2.19266        1.28094
H         -0.70607        2.08526        1.42045
H          0.52013        3.21276        1.16636
