16
Coordinates from ORCA-job run	Energy:     194.9640120
C          1.11880       -0.02297        0.00653
H          1.66879        2.02563       -0.17923
Cl        -2.11301       -0.39465       -0.12577
Cl         2.87670       -0.12883        0.22436
C          0.70776        1.51035       -0.03511
C          0.88799       -0.74136       -1.27088
N          0.71767       -1.32289       -2.25977
C          0.64652       -0.76150        1.21151
N          0.36727       -1.31194        2.19557
C          0.12908        2.07174        1.28288
H         -0.90026        1.70096        1.48740
H          0.78039        1.77534        2.12991
H          0.10015        3.18103        1.24731
N         -0.08975        1.92986       -1.20547
H          0.04566        2.96056       -1.34796
H         -1.11697        1.80138       -1.08378
