13
Coordinates from ORCA-job run	Energy:      89.1456602
C          0.45913        0.01165       -0.03845
H          1.67272        1.85282        0.08431
Br        -2.57208        0.13195        0.18408
H          4.28873       -0.94371        0.03829
C          0.61599        1.52951       -0.00730
H          0.05333        1.89320        0.88376
C          0.64657       -0.70750       -1.30519
N          0.78227       -1.29759       -2.29543
C          0.65086       -0.72591        1.21219
N          0.76846       -1.26473        2.22917
N          0.03646        2.10137       -1.22005
H          0.00812        3.13950       -1.13295
H         -0.94867        1.77261       -1.32764
