17
Coordinates from ORCA-job run	Energy:     142.4760286
C          0.56753       -0.04372        0.02768
H          1.71745        1.81201       -0.10286
Cl        -2.32496       -0.17931       -0.11368
Cl         3.54205       -0.30755       -0.14831
C          0.65171        1.49311       -0.00268
C          0.62935       -0.81340       -1.23139
N          0.62755       -1.41700       -2.21861
C          0.64333       -0.82794        1.34360
H          1.49332       -0.50403        1.97839
H         -0.30062       -0.64910        1.89799
H          0.72952       -1.91665        1.14934
C          0.10276        2.12996        1.26594
H         -0.95689        1.84188        1.42748
H          0.70550        1.79639        2.13695
H          0.17981        3.23398        1.19664
C         -0.01938        2.05715       -1.19665
N         -0.53564        2.53287       -2.12161
