16
Coordinates from ORCA-job run	Energy:      75.2834575
C          1.19537       -0.07108        0.08232
H          1.17195        1.89271       -0.81483
F         -2.24374        0.55321        0.73265
F          2.49956        0.06692        0.47870
C          0.55843        1.32151       -0.08777
H         -0.45640        1.21108       -0.51101
C          1.20962       -0.75073       -1.23281
N          1.23313       -1.30245       -2.24503
C          0.45752       -0.89859        1.12644
H          0.68192       -0.51250        2.14016
H         -0.61388       -0.83939        0.98346
H          0.72327       -1.96577        1.06584
C          0.41526        2.08587        1.22913
H         -0.45633        1.67563        1.77524
H          1.31831        1.99860        1.86750
H          0.21231        3.15643        1.03714
