15
Coordinates from ORCA-job run	Energy:     128.5701442
C          1.18051       -0.00738        0.00834
H          1.54145        2.11801        0.39950
F         -1.86928       -0.10336       -0.27011
Br         3.12308       -0.05232       -0.10133
C          0.69775        1.47977        0.05312
H         -0.09879        1.62816        0.81663
C          0.72407       -0.76743       -1.17370
N          0.38562       -1.39264       -2.08850
C          0.73664       -0.73987        1.28674
H          1.09780       -1.78821        1.28353
H          1.10595       -0.20883        2.18606
H         -0.36628       -0.78132        1.37956
N          0.20303        1.98849       -1.22904
H          0.00051        3.00939       -1.11817
H         -0.72727        1.55370       -1.43085
