18
Coordinates from ORCA-job run	Energy:      64.9227911
C          1.17214       -0.02921        0.16535
H          1.77207        1.80465       -0.84061
Br        -2.24801       -1.17804       -1.39318
F          2.43169       -0.26102        0.68767
C          1.00218        1.49920       -0.09474
C          1.13904       -0.76626       -1.11386
N          1.15265       -1.32290       -2.12368
C          0.14816       -0.57834        1.17960
H          0.39846       -0.20631        2.19602
H         -0.89291       -0.27047        0.96829
H          0.16728       -1.68869        1.20780
N          1.23488        2.24676        1.14141
H          1.16731        3.27072        0.94129
H          2.21387        2.06900        1.46282
C         -0.37323        1.89447       -0.68025
H         -0.56761        1.37524       -1.64179
H         -1.20522        1.68076        0.02155
H         -0.39823        2.98675       -0.87986
