16
Coordinates from ORCA-job run	Energy:     196.3384169
C          0.16541       -0.14708       -0.15669
H          1.35865        1.61828       -0.88028
Cl        -1.45642       -0.53061       -0.81100
F          3.05494        0.00639        0.55265
C          0.50775        1.41409       -0.18480
C          1.05151       -0.89201       -1.07333
N          1.73390       -1.47415       -1.82401
C          0.16716       -0.74272        1.26911
H          1.10246       -0.60738        1.85357
H         -0.64536       -0.25329        1.84602
H         -0.03993       -1.83279        1.22982
N          0.84776        1.98971        1.13114
H          0.91258        3.03432        1.05736
H          1.78797        1.69357        1.46074
C         -0.61865        2.21416       -0.69581
N         -1.50109        2.83694       -1.10019
