16
Coordinates from ORCA-job run	Energy:     104.3207729
C          0.99805       -0.07746       -0.09352
H          1.53190        1.93508        0.50448
F         -1.96392       -0.13769        0.46126
H          2.03155       -0.19394       -0.45548
C          0.67250        1.43622        0.00181
H         -0.22770        1.62687        0.62632
C          0.23363       -0.79561       -1.12931
N         -0.35206       -1.32810       -1.98025
C          0.88853       -0.76433        1.28516
H          1.85986       -0.68878        1.81849
H          0.11990       -0.28852        1.93292
H          0.62715       -1.83994        1.19346
C          0.39500        2.08055       -1.35694
H          1.21172        1.85926       -2.07226
H         -0.56343        1.68176       -1.75966
H          0.27809        3.17574       -1.24046
