15
Coordinates from ORCA-job run	Energy:     120.1221679
C          1.19468        0.11605       -0.22662
H          1.56546        2.07094        0.54787
F         -1.40953       -1.08464        1.55699
F          2.35479        0.13026       -0.97867
C          0.75722        1.59810       -0.04486
C          0.22900       -0.70337       -0.99176
N         -0.49889       -1.37965       -1.58729
N          1.54620       -0.49775        1.05838
H          1.90875       -1.46706        0.90805
H          0.76318       -0.52738        1.73855
N         -0.52018        1.84576        0.63607
H         -0.36250        2.41404        1.49993
H         -0.98653        0.98407        0.94833
C          0.72472        2.28128       -1.34134
N          0.72684        2.81211       -2.36650
