15
Coordinates from ORCA-job run	Energy:     150.6770977
C          0.66776       -0.03165       -0.00195
H          1.77255        1.86299       -0.13238
F         -1.98507        0.10157       -0.09479
Cl         3.73303       -0.27159       -0.12398
C          0.72374        1.51770       -0.04441
C          0.61073       -0.89501       -1.19562
N          0.53915       -1.57641       -2.12800
N          0.67219       -0.70238        1.29863
H          1.33987       -1.50426        1.29420
H         -0.28879       -1.08524        1.44565
C          0.16512        2.03295        1.22478
N         -0.26022        2.48540        2.20777
N         -0.02027        2.03540       -1.19952
O         -0.93070        2.80307       -1.05723
O          0.30405        1.72036       -2.30666
