16
Coordinates from ORCA-job run	Energy:     226.1014452
C          1.13683       -0.03162        0.01236
H          1.63596        2.02561       -0.14540
Cl        -2.05655       -0.36197       -0.23105
F          2.52047        0.02832        0.05577
C          0.68626        1.47971       -0.03514
C          0.87286       -0.82228       -1.21564
N          0.69075       -1.39816       -2.20506
N          0.73743       -0.72904        1.25324
H          1.55649       -1.29492        1.57137
H         -0.05228       -1.41005        1.17479
C          0.07727        2.03880        1.25566
H         -0.95758        1.67646        1.42688
H          0.70999        1.75666        2.12123
H          0.05225        3.15075        1.19357
C         -0.05207        1.97242       -1.21558
N         -0.62142        2.43583       -2.11139
