16
Coordinates from ORCA-job run	Energy:      90.6097998
C          0.14037       -0.13480        0.06347
H          1.61466        1.50368        0.23954
Cl        -1.65527       -0.32762        0.11427
H          2.91313       -0.04481       -0.62565
C          0.52214        1.38389        0.09452
C          0.73414       -0.82925       -1.17062
N          0.06381       -1.40551       -2.10163
N          0.71064       -0.74887        1.26545
H          1.74659       -0.86466        1.15285
H          0.29926       -1.68852        1.44452
C         -0.09674        2.10298        1.24199
N         -0.56514        2.68316        2.12229
C          0.18293        2.08937       -1.21990
H          0.80042        1.65315       -2.03540
H         -0.88654        1.96548       -1.48554
H          0.43315        3.16884       -1.16589
