15
Coordinates from ORCA-job run	Energy:      13.3021905
C          1.01803        0.03490       -0.08919
H          1.91638        1.81478       -0.98024
F         -2.48905       -0.65945       -0.03842
Br         2.64467       -0.47350        0.84329
C          1.04594        1.55326       -0.33994
H          0.15977       -0.21445        0.57131
H          1.16773        2.06558        0.63893
C          0.91487       -0.78610       -1.37703
H         -0.03535       -0.57910       -1.90923
H          1.76855       -0.56010       -2.05073
H          0.93005       -1.86883       -1.13160
C         -0.23325        2.08695       -0.98689
H         -0.38061        1.66028       -1.99946
H         -1.11366        1.84974       -0.35288
H         -0.15893        3.18975       -1.09148
