17
Coordinates from ORCA-job run	Energy:      34.6304554
C          0.19485       -0.08787       -0.11124
H          1.47597        1.63489       -0.38616
Br        -1.65136       -0.59003        0.26753
Br         3.90952       -0.19418        0.99153
C          0.40146        1.44620       -0.16433
H          0.82385       -0.50161        0.70620
C          0.63490       -0.75489       -1.41587
H          0.01910       -0.39898       -2.26865
H          1.70281       -0.52852       -1.62215
H          0.52257       -1.85657       -1.33254
C          0.09682        2.10852        1.18795
H         -0.96731        1.97218        1.47202
H          0.74009        1.67066        1.98071
H          0.30796        3.19744        1.13248
N         -0.40140        2.05242       -1.23070
H         -0.16533        3.06821       -1.31112
H         -1.42098        1.97071       -1.01444
