15
Coordinates from ORCA-job run	Energy:      13.3972530
C          1.03036        0.03114       -0.04743
H          1.96650        1.79567       -0.92470
F         -2.46933       -0.67611       -0.19002
F          2.17138       -0.32572        0.65046
C          1.07341        1.54564       -0.31076
H          0.14931       -0.20837        0.58642
H          1.17103        2.06346        0.66828
C          0.96686       -0.80131       -1.32932
H          0.03501       -0.59843       -1.89498
H          1.84429       -0.58390       -1.97439
H          0.97520       -1.88059       -1.06924
C         -0.18136        2.08138       -1.00110
H         -0.30028        1.64581       -2.01405
H         -1.08220        1.85492       -0.39260
H         -0.09704        3.18243       -1.11330
