16
Coordinates from ORCA-job run	Energy:      55.8444345
C          0.37404       -0.01630       -0.11838
H          1.52854        1.78992       -0.53062
Cl        -1.30276       -0.52938        0.23887
H          3.28743        0.57250        1.00141
C          0.48597        1.53149       -0.24370
H          1.01646       -0.33890        0.72955
C          0.88368       -0.76761       -1.35145
H          0.26537       -0.56568       -2.24751
H          1.93785       -0.48627       -1.56078
H          0.84911       -1.86113       -1.16008
N          0.23295        2.16465        1.05906
H          0.94927        1.84791        1.75143
H         -0.71681        1.91698        1.41890
N         -0.41546        2.07517       -1.25649
O         -0.27633        1.78093       -2.40394
O         -1.25201        2.87489       -0.96033
