17
Coordinates from ORCA-job run	Energy:      37.3053583
C          0.19751       -0.09138       -0.11279
H          1.57979        1.55850       -0.41945
Br        -1.67056       -0.45051        0.30837
Cl         3.75214        0.09752        1.30628
C          0.49973        1.42962       -0.18009
H          0.80551       -0.52697        0.70914
C          0.58915       -0.83638       -1.39151
H         -0.01216       -0.50065       -2.26022
H          1.66724       -0.68038       -1.60929
H          0.41645       -1.92532       -1.25637
N          0.23877        2.04216        1.12469
H          0.50973        3.05244        1.09328
H          0.84433        1.58819        1.84681
C         -0.31305        2.16417       -1.25897
H         -0.10146        1.76058       -2.26944
H         -1.40240        2.08902       -1.05785
H         -0.03778        3.24060       -1.27042
