15
Coordinates from ORCA-job run	Energy:      90.8700847
C          1.01391        0.01327       -0.04803
H          1.72900        2.05989       -0.39206
F         -2.03128       -0.27172        0.23869
Br         2.81717       -0.33571        0.59917
C          0.79168        1.55774       -0.10746
H          0.31194       -0.48113        0.66090
C          0.83177       -0.71289       -1.38598
H         -0.22301       -0.61563       -1.71614
H          1.49731       -0.30189       -2.17112
H          1.02242       -1.80504       -1.26995
C          0.34072        2.06708        1.18549
N         -0.05126        2.44771        2.20078
N         -0.20288        1.95373       -1.14911
H         -0.24216        2.99875       -1.17592
H         -1.15687        1.55280       -1.02667
