17
Coordinates from ORCA-job run	Energy:      58.9595018
C          0.90633       -0.00842       -0.05153
H          1.83344        1.93969       -0.42444
Br        -2.89692       -0.44190        0.46287
Cl         2.36440       -0.50162        0.86101
C          0.83343        1.54742       -0.13937
H          0.01375       -0.39074        0.48482
C          0.93223       -0.72256       -1.40947
H         -0.02426       -0.55532       -1.94885
H          1.77914       -0.36799       -2.03426
H          1.02415       -1.81816       -1.25559
N          0.46500        2.09124        1.17342
O         -0.52504        2.74669        1.31046
O          1.15971        1.89200        2.12276
C         -0.13012        2.04635       -1.23356
H          0.22216        1.72802       -2.23724
H         -1.16121        1.66739       -1.06882
H         -0.14747        3.15490       -1.24467
