16
Coordinates from ORCA-job run	Energy:      47.9192841
C          0.17577       -0.08905       -0.07380
H          1.50541        1.59851       -0.31343
Cl        -1.54385       -0.49434        0.22833
Br         3.94870       -0.33082        0.59415
C          0.42234        1.44530       -0.10634
H          0.78237       -0.52666        0.74872
C          0.61593       -0.75404       -1.38034
H          0.01453       -0.38026       -2.23588
H          1.68851       -0.54635       -1.57877
H          0.48201       -1.85417       -1.30708
N          0.12075        2.09994        1.16394
O          0.32485        3.26993        1.28588
O         -0.28929        1.48141        2.10069
N         -0.34382        2.06779       -1.18936
H         -0.06528        3.07141       -1.28468
H         -1.36666        2.03210       -0.97396
