13
Coordinates from ORCA-job run	Energy:      26.5058122
C          1.02965       -0.09305        0.09547
H          0.95680        1.94727       -0.68867
F         -2.29378        0.01705       -0.93346
Br         2.90890       -0.06230        0.60658
C          0.43611        1.32077        0.06019
H          0.47170       -0.70405        0.83789
H         -0.61470        1.28454       -0.22234
C          0.88101       -0.73744       -1.28535
H         -0.18134       -0.73881       -1.58473
H          1.44635       -0.17472       -2.06019
H          1.22163       -1.79136       -1.26660
C          0.44452        1.99814        1.35186
N          0.42596        2.57637        2.35308
