12
Coordinates from ORCA-job run	Energy:       1.2413616
C          1.14715       -0.02520       -0.01432
H          1.41086        1.96901       -0.85875
Br        -2.81228       -0.41442        0.36308
Cl         2.86454       -0.21049        0.43468
C          0.79304        1.45875       -0.08899
H          0.52415       -0.50640        0.77005
H          0.97684        1.94044        0.89466
H         -0.28006        1.58563       -0.34619
C          0.88783       -0.71992       -1.34979
H         -0.18364       -0.62995       -1.62850
H          1.50794       -0.26646       -2.15232
H          1.13957       -1.79864       -1.26928
