14
Coordinates from ORCA-job run	Energy:      13.5025328
C          0.15289       -0.09628       -0.04617
H          1.56988        1.55177       -0.21930
Cl        -1.60356       -0.34802        0.17260
H          3.56729        0.18560        0.27353
C          0.47848        1.40612       -0.06781
H          0.68818       -0.57918        0.80007
H         -0.05236        1.88370       -0.92232
C          0.59833       -0.76770       -1.34463
H          0.07186       -0.32144       -2.21538
H          1.69347       -0.64610       -1.48480
H          0.36916       -1.85388       -1.30661
N          0.09269        2.04141        1.17609
O         -0.70398        2.93067        1.17330
O          0.59075        1.69940        2.20602
