14
Coordinates from ORCA-job run	Energy:      24.1071822
C          0.95757       -0.06930        0.00919
H          1.30457        1.97173       -0.66043
F         -2.46627       -0.04784        0.04361
Cl         2.60418       -0.24686        0.68755
C          0.55501        1.41889       -0.05321
H          0.23923       -0.62371        0.65108
H         -0.43147        1.50613       -0.56059
C          0.92637       -0.69718       -1.38370
H         -0.09817       -0.63377       -1.80872
H          1.63274       -0.17731       -2.06553
H          1.21043       -1.76934       -1.32157
N          0.44278        2.04515        1.25467
O          0.13282        3.19512        1.32679
O          0.62206        1.42420        2.26054
