15
Coordinates from ORCA-job run	Energy:      65.7940604
C          0.17029       -0.07043       -0.10959
H          1.46142        1.52888       -0.50042
Cl        -1.55905       -0.44284        0.18818
Br         3.40392       -0.00616        0.92660
C          0.41275        1.42928       -0.16277
H          0.72833       -0.45121        0.74430
C          0.66406       -0.75247       -1.36667
H          0.13473       -0.38230       -2.25110
H          1.73938       -0.56180       -1.43172
H          0.52349       -1.82840       -1.28387
N          0.23103        2.02855        1.16790
H          0.39646        3.03398        1.09891
H          0.99397        1.65558        1.73914
C         -0.46311        2.10592       -1.15379
N         -1.13578        2.62345       -1.91148
