18
Coordinates from ORCA-job run	Energy:      22.2344499
C          0.83962        0.01909        0.01351
H          1.73905        1.91504       -0.57352
Cl        -2.95546       -0.91715       -0.13044
F          1.87210       -0.28796        0.88532
C          0.76768        1.55504       -0.16870
H         -0.10922       -0.35170        0.45734
C          1.08812       -0.74046       -1.29297
H          0.24627       -0.61014       -2.00213
H          2.03122       -0.39674       -1.76793
H          1.17251       -1.82614       -1.07775
C          0.53570        2.23134        1.19238
H         -0.42878        1.90451        1.63295
H          1.35526        1.97811        1.89915
H          0.51788        3.33621        1.07625
C         -0.34508        1.98696       -1.13869
H         -0.16563        1.58866       -2.15806
H         -1.33779        1.63895       -0.78101
H         -0.36541        3.09374       -1.22590
