14
Coordinates from ORCA-job run	Energy:      24.4496723
C          0.21083       -0.06618       -0.06868
H          1.60986        1.56763       -0.34018
Br        -1.65570       -0.37996        0.38201
Br         4.07942       -0.03172        0.50814
C          0.52392        1.43810       -0.14422
H          0.82291       -0.50650        0.74907
H          0.29474        1.91681        0.83351
C          0.56046       -0.78907       -1.36991
H         -0.04610       -0.39642       -2.21287
H          1.63722       -0.65482       -1.60582
H          0.35817       -1.87592       -1.26267
N         -0.22772        2.10195       -1.20653
H          0.08813        3.09727       -1.26422
H         -1.24422        2.10881       -0.96530
