15
Coordinates from ORCA-job run	Energy:       8.5692152
C          0.19331       -0.13019       -0.06069
H          1.35908        1.67141       -0.40844
Cl        -1.47728       -0.62281        0.34784
Cl         3.90438        0.29465        0.76358
C          0.32282        1.40247       -0.10781
H          0.88174       -0.53450        0.71277
H         -0.37895        1.81797       -0.86384
C          0.57327       -0.74342       -1.40774
H         -0.10114       -0.37332       -2.20946
H          1.62090       -0.48100       -1.66814
H          0.49384       -1.85018       -1.35570
C          0.04826        2.05206        1.24810
H         -0.98963        1.84864        1.58447
H          0.76086        1.66830        2.00878
H          0.17764        3.15164        1.16444
