17
Coordinates from ORCA-job run	Energy:      37.5991385
C          0.20172       -0.05848       -0.10884
H          1.54571        1.62346       -0.41164
Cl        -1.51252       -0.42039        0.25992
Cl         3.69220       -0.28672        1.39877
C          0.46858        1.46888       -0.17238
H          0.81188       -0.48133        0.71814
C          0.62279       -0.79293       -1.38457
H          0.02356       -0.46934       -2.25903
H          1.69940       -0.61166       -1.59134
H          0.47367       -1.88588       -1.25327
N          0.19346        2.07275        1.13221
H          0.43822        3.08953        1.10224
H          0.81221        1.63406        1.85277
C         -0.36662        2.18386       -1.25011
H         -0.14910        1.78576       -2.26110
H         -1.45246        2.08029       -1.04305
H         -0.11857        3.26634       -1.26046
