15
Coordinates from ORCA-job run	Energy:     152.0916347
C          0.93241       -0.01615       -0.00781
H          1.71513        1.89866       -0.36001
F         -1.67778       -0.18075        0.00859
F          2.16691       -0.22008        0.54198
C          0.73489        1.49850       -0.10286
H          0.24617       -0.48777        0.71135
C          0.85037       -0.72809       -1.35164
H         -0.19320       -0.73079       -1.72708
H          1.50659       -0.23582       -2.08782
H          1.17660       -1.77164       -1.21143
C          0.40277        2.07551        1.20935
N          0.14729        2.56299        2.22564
N         -0.14912        1.94130       -1.18517
H         -0.37084        2.94932       -1.09442
H         -1.08258        1.54048       -1.07641
