14
Coordinates from ORCA-job run	Energy:      15.4882209
C          0.43175        0.00931       -0.11067
H          1.74214        1.70398       -0.47431
Cl        -2.91956       -0.33977        0.67492
Br         4.23106       -0.45428        0.52679
C          0.67705        1.51569       -0.21875
H          1.06818       -0.40664        0.69950
H          0.46320        1.98575        0.76624
C          0.73014       -0.72746       -1.41268
H          0.06787       -0.36254       -2.22494
H          1.79066       -0.58065       -1.70733
H          0.54369       -1.81214       -1.26971
N         -0.18260        2.11097       -1.23580
H          0.01087        3.13780       -1.27876
H         -1.18257        1.98388       -0.95728
