18
Coordinates from ORCA-job run	Energy:     204.4228535
C          0.61738       -0.04427        0.01138
H          1.50038        1.86120        0.45176
F         -1.82708       -0.39738        0.61806
Cl         3.34373        0.04042       -0.51213
C          0.52777        1.50754        0.09419
C          0.40411       -0.85870       -1.28237
H         -0.67117       -0.93565       -1.53603
H          0.95046       -0.39951       -2.13637
H          0.82373       -1.87223       -1.15258
N          0.90787       -0.76603        1.23780
O          1.14457       -0.16639        2.23160
O          0.96824       -1.96752        1.25727
C         -0.45732        2.04934        1.05954
N         -1.18358        2.49763        1.84553
C          0.22132        2.10975       -1.25826
H          1.03171        1.85941       -1.96922
H         -0.74588        1.72678       -1.65034
H          0.16074        3.20594       -1.15891
