15
Coordinates from ORCA-job run	Energy:     116.7212529
C          0.19704       -0.14634        0.06370
H          1.52749        1.67608        0.01446
Cl        -1.56434       -0.45634        0.15418
F          3.02038       -0.02791        0.21440
C          0.44795        1.40482        0.01606
H          0.00896        1.79785       -0.90851
C          0.69034       -0.74551       -1.28775
H         -0.03001       -0.47871       -2.08697
H          1.68586       -0.38355       -1.63299
H          0.74484       -1.85059       -1.23245
N          0.84493       -0.80309        1.19876
O          0.89685       -0.24941        2.25473
O          1.01355       -1.98735        1.17592
C         -0.15760        2.14100        1.12640
N         -0.61022        2.80006        1.96179
