15
Coordinates from ORCA-job run	Energy:      31.2759044
C          1.13820       -0.03065        0.07621
H          1.13905        1.96859       -0.78536
Br        -3.04369       -0.18101        0.14078
Cl         2.85811        0.05454        0.56140
C          0.54159        1.39822       -0.03958
H         -0.49792        1.32683       -0.42561
C          1.05175       -0.73400       -1.28463
H         -0.00736       -0.82136       -1.61361
H          1.61164       -0.16315       -2.05589
H          1.48359       -1.75687       -1.22569
C          0.40663       -0.83934        1.06686
N         -0.16232       -1.47629        1.84820
N          0.51212        2.15688        1.20306
O          0.07084        3.26359        1.19771
O          0.90483        1.69219        2.23141
