16
Coordinates from ORCA-job run	Energy:     191.6698147
C          0.58260       -0.04484       -0.03524
H          1.65446        1.79701       -0.13113
Cl        -2.22263       -0.17631        0.18131
Br         3.54605       -0.18635        0.17458
C          0.60502        1.48855       -0.03526
C          0.69625       -0.79505       -1.36037
H         -0.29845       -0.88962       -1.84681
H          1.36830       -0.22728       -2.03335
H          1.11796       -1.80477       -1.19091
C          0.62197       -0.81138        1.23218
N          0.63190       -1.40208        2.22808
C          0.13991        2.09587        1.22918
N         -0.21627        2.59345        2.21205
N         -0.10712        2.02025       -1.19946
H          0.05975        3.04757       -1.26671
H         -1.13275        1.86119       -1.11635
