16
Coordinates from ORCA-job run	Energy:     183.7066316
C          1.14539       -0.02605       -0.00620
H          1.70601        2.04518       -0.26221
F         -1.71831       -0.05420        0.32400
Cl         2.89983       -0.15588        0.27645
C          0.75877        1.50802       -0.06094
C          0.78830       -0.73534       -1.32377
H         -0.30885       -0.70654       -1.52641
H          1.29932       -0.24530       -2.17941
H          1.08129       -1.80172       -1.27124
C          0.59509       -0.80020        1.13005
N          0.19051       -1.42521        2.01881
C          0.24070        2.06232        1.20167
N         -0.16615        2.55066        2.17093
N         -0.12710        1.89072       -1.17349
H         -0.26581        2.92754       -1.17539
H         -1.08240        1.51217       -1.06114
