16
Coordinates from ORCA-job run	Energy:     105.0290950
C          1.03873        0.07272        0.07984
H          1.59793        1.94941       -0.82365
F         -2.05444       -0.85030       -0.99087
H          2.05910       -0.02737        0.51093
C          0.81042        1.60317       -0.12162
C          1.09015       -0.71675       -1.25459
H          0.11321       -0.79731       -1.76073
H          1.77253       -0.19808       -1.96123
H          1.47878       -1.74108       -1.08103
C          0.12088       -0.52780        1.06627
N         -0.57501       -0.98760        1.87478
C          0.98495        2.33359        1.14211
N          1.16978        2.87923        2.14128
N         -0.50013        1.97990       -0.71554
H         -1.10384        2.50820       -0.04722
H         -1.04030        1.14126       -1.00542
