15
Coordinates from ORCA-job run	Energy:      29.2803135
C          0.14325       -0.06017        0.00488
H          1.64385        1.52913       -0.25262
Cl        -1.61481       -0.19366        0.29728
H          3.51155       -0.20280       -0.01307
C          0.54459        1.43209       -0.11079
H          0.29124        1.92889        0.85484
C          0.50901       -0.88490       -1.23874
H         -0.05775       -0.55066       -2.13005
H          1.59576       -0.81113       -1.45692
H          0.25483       -1.95551       -1.07975
C          0.83591       -0.63990        1.16806
N          1.38075       -1.09572        2.08206
N         -0.13394        2.12714       -1.19035
O         -0.85473        3.04650       -0.94572
O          0.09461        1.85046       -2.32845
