19
Coordinates from ORCA-job run	Energy:      53.9581757
C          1.08791       -0.01842       -0.02015
H          1.66425        1.99844       -0.62088
F         -2.93291       -0.49619        0.09717
Br         2.85461       -0.23653        0.77582
C          0.77943        1.51521       -0.14552
C          1.10461       -0.73566       -1.37616
H          0.09558       -0.73543       -1.84083
H          1.82019       -0.25025       -2.07062
H          1.40140       -1.79899       -1.25053
C          0.12615       -0.71090        0.85682
N         -0.60593       -1.26602        1.56023
C          0.55317        2.17831        1.22952
H         -0.36306        1.77434        1.71421
H          1.41456        2.00590        1.90583
H          0.41996        3.27479        1.11445
C         -0.41523        1.84519       -1.05882
H         -0.22433        1.50367       -2.09724
H         -1.34678        1.38159       -0.68096
H         -0.56044        2.94668       -1.11418
