17
Coordinates from ORCA-job run	Energy:      35.4832585
C          0.01665       -0.04387       -0.01096
H          1.68663        1.36220       -0.00536
Cl        -1.77498       -0.01316        0.01498
F          3.91306       -0.17214       -0.02391
C          0.57530        1.39952       -0.03023
H          0.23320        1.95235        0.87349
C          0.48207       -0.82809       -1.24879
H          0.08183       -1.86490       -1.22408
H          0.12027       -0.34458       -2.18107
H          1.59076       -0.88090       -1.28761
C          0.49760       -0.76007        1.26005
H          1.60676       -0.81451        1.28752
H          0.15038       -0.21740        2.16546
H          0.09545       -1.79531        1.30014
N          0.16509        2.13192       -1.22778
H          0.61894        3.07336       -1.21281
H         -0.86900        2.28202       -1.21319
