17
Coordinates from ORCA-job run	Energy:      31.2084239
C          0.14562       -0.01048       -0.02226
H          1.81732        1.42297        0.10509
Cl        -3.20908        0.06431        0.03937
Cl         4.25835       -0.18863        0.06071
C          0.70793        1.42191        0.07817
H          0.39115        1.95675       -0.84590
C          0.65236       -0.71397       -1.28770
H          0.02927       -1.61120       -1.48691
H          0.58008       -0.04698       -2.17374
H          1.70988       -1.03642       -1.17162
C          0.42690       -0.89017        1.20486
H          1.52040       -0.96020        1.39158
H         -0.07614       -0.48921        2.10514
H          0.02463       -1.91266        1.04329
N          0.20023        2.14616        1.23268
O         -0.48604        3.11304        1.07611
O          0.52983        1.83687        2.33669
