17
Coordinates from ORCA-job run	Energy:     178.3337841
C          0.54560       -0.05816        0.00473
H          1.78233        1.82461        0.02409
Cl        -2.22978        0.15659       -0.03362
F          3.11952       -0.02485        0.03507
C          0.73511        1.49041        0.00363
C          0.67968       -0.85717       -1.29785
H         -0.08862       -1.65718       -1.26058
H          0.39206       -0.21486       -2.14524
H          1.68205       -1.28745       -1.49446
C          0.64737       -0.86761        1.30287
H          1.65002       -1.28184        1.53553
H          0.30132       -0.24070        2.14012
H         -0.09464       -1.68852        1.22152
C          0.08418        2.08707        1.18220
N         -0.39564        2.53057        2.13789
C          0.13239        2.06989       -1.20632
N         -0.32977        2.56045       -2.14726
