16
Coordinates from ORCA-job run	Energy:      62.5027954
C          0.08486       -0.04380       -0.02228
H          1.69426        1.48121       -0.08686
Br        -1.85837        0.01355       -0.16395
F          3.21839       -0.17357        0.20310
C          0.60851        1.41498        0.01453
H          0.20417        1.97279       -0.85076
C          0.62471       -0.76120       -1.27725
H          0.17355       -1.76806       -1.36848
H          0.39202       -0.17488       -2.18799
H          1.72004       -0.90711       -1.27102
C          0.45536       -0.83896        1.24732
H          1.53775       -0.96542        1.39594
H          0.07651       -0.32459        2.15170
H          0.01310       -1.85264        1.20796
C          0.31546        2.13498        1.25869
N          0.09796        2.72980        2.22609
