17
Coordinates from ORCA-job run	Energy:      58.1210460
C          1.31097       -0.07566       -0.03933
H          1.88947        1.51904        1.32573
Cl        -2.82380       -0.48039        0.93598
H          2.36002       -0.32537       -0.31110
C          1.26316        1.41335        0.40617
H          1.71494        2.05853       -0.37574
C          0.48889       -0.34553       -1.30565
H         -0.59656       -0.24285       -1.12186
H          0.80294        0.34703       -2.11828
H          0.67038       -1.38679       -1.65478
C          0.89652       -1.01574        1.10287
H          1.75248       -1.15356        1.79954
H          0.04210       -0.61251        1.68660
H          0.61395       -2.02075        0.71906
N         -0.08731        1.87339        0.67285
O         -0.87689        1.99919       -0.21968
O         -0.37631        2.26218        1.77152
