17
Coordinates from ORCA-job run	Energy:      42.7219547
C         -0.10593        0.00627       -0.09362
H         -0.29913        2.07368       -0.78517
Br        -1.84908       -0.41446       -0.85572
F          3.75610       -0.59790        1.46804
C         -0.06823        1.53739        0.16103
H         -0.86238        1.80641        0.89184
C          0.96914       -0.42995       -1.10159
H          0.87586       -1.51528       -1.32018
H          0.85825        0.12948       -2.05435
H          1.99070       -0.25609       -0.70247
C          0.03488       -0.79530        1.20904
H          1.02270       -0.63425        1.68770
H         -0.75989       -0.50692        1.92913
H         -0.06328       -1.88317        1.00386
N          1.21597        2.03252        0.65977
H          1.96130        1.92739       -0.06475
H          1.49546        1.55107        1.54269
