20
Coordinates from ORCA-job run	Energy:      51.2090515
C          1.18812        0.07226        0.13407
H          1.50695        2.05000       -0.67152
F         -2.73026       -1.08937       -0.89298
H          2.21436        0.08853        0.56471
C          0.72920        1.55033       -0.05070
C          1.26307       -0.64236       -1.22450
H          0.25628       -0.71534       -1.69039
H          1.93542       -0.09152       -1.91664
H          1.66444       -1.66984       -1.09825
C          0.30786       -0.74059        1.09918
H          0.70316       -1.77509        1.18977
H          0.32581       -0.30000        2.11666
H         -0.74024       -0.79719        0.74549
C          0.63852        2.31887        1.27687
H         -0.16910        1.91062        1.92076
H          1.60317        2.26495        1.82387
H          0.40297        3.38579        1.07991
N         -0.54166        1.63546       -0.77541
H         -0.74917        2.63553       -1.00240
H         -1.32426        1.26065       -0.19314
