19
Coordinates from ORCA-job run	Energy:      68.4361568
C          0.19202       -0.05976        0.05007
H          1.79243        1.41862       -0.19013
Br        -3.17465        0.26002        0.16502
Br         4.35266       -0.36672       -0.03973
C          0.68882        1.41504       -0.03402
C          0.49795       -0.86676       -1.22387
H         -0.20270       -0.58085       -2.03322
H          1.54322       -0.69492       -1.56026
H          0.36190       -1.95618       -1.05228
C          0.71329       -0.80656        1.28648
H          1.79749       -1.01961        1.21398
H          0.51328       -0.23539        2.21587
H          0.16454       -1.76851        1.38041
N          0.42470        2.09226        1.24105
H         -0.60229        2.11528        1.43450
H          0.79547        3.07020        1.21092
N          0.05718        2.13981       -1.13932
O         -0.61784        3.10124       -0.93770
O          0.28059        1.81062       -2.26968
