16
Coordinates from ORCA-job run	Energy:     136.8617828
C          1.16383       -0.01813        0.07306
H          1.15643        1.98248       -0.75796
Br        -2.50839       -0.31127       -0.18450
Br         3.10018        0.13445        0.28434
C          0.56833        1.40612       -0.01357
H         -0.46756        1.38640       -0.36269
C          0.88390       -0.73929       -1.25774
H         -0.19642       -0.89686       -1.39988
H          1.25186       -0.14464       -2.11625
H          1.36448       -1.73853       -1.26833
C          0.54738       -0.83355        1.24340
H          1.33659       -1.11517        1.97286
H         -0.22435       -0.26086        1.79407
H          0.03484       -1.75580        0.89929
C          0.62704        2.12312        1.27552
N          0.66477        2.67124        2.28020
