19
Coordinates from ORCA-job run	Energy:      57.9186815
C          1.22750        0.03297        0.10887
H          1.54020        1.85172       -1.00967
Cl        -2.38144       -0.95641       -2.08832
H          2.25240       -0.02717        0.53803
C          0.91973        1.52834       -0.14814
C          1.24835       -0.75753       -1.20754
H          0.25201       -0.77685       -1.67796
H          1.96433       -0.30416       -1.92598
H          1.56007       -1.80401       -1.02603
C          0.23887       -0.61076        1.08859
H          0.57804       -1.62842        1.35994
H          0.14802       -0.00743        2.01371
H         -0.76198       -0.69851        0.61402
C          1.34364        2.32880        1.01210
N          1.69322        2.95231        1.92328
C         -0.55486        1.81474       -0.45762
H         -0.95003        1.11665       -1.21235
H         -1.17807        1.71426        0.45596
H         -0.67000        2.84529       -0.84562
