18
Coordinates from ORCA-job run	Energy:     257.7296046
C          0.11356       -0.08205       -0.10378
H          1.49270        1.65697       -0.56218
F         -1.25893       -0.17022       -0.30246
Cl         3.47633        0.13557        0.64098
C          0.48744        1.45964       -0.12746
C          0.80543       -0.84163       -1.27576
H          0.05695       -1.33609       -1.92301
H          1.40977       -0.16857       -1.92627
H          1.51374       -1.62757       -0.92306
C          0.31372       -0.83966        1.23846
H          1.30501       -1.31153        1.38403
H          0.08343       -0.20078        2.11477
H         -0.42660       -1.66948        1.28374
N          0.45266        2.06769        1.20658
H          0.45537        3.11265        1.13268
H          1.34635        1.82632        1.69789
C         -0.50413        2.15476       -0.98181
N         -1.33502        2.67523       -1.59416
