18
Coordinates from ORCA-job run	Energy:      72.7144626
C          0.07224       -0.01472        0.04260
H          1.66924        1.46654       -0.13979
F         -1.31256       -0.03074        0.09522
F          3.91343       -0.05517       -0.40138
C          0.55633        1.45835       -0.05161
C          0.52203       -0.82922       -1.18044
H          0.08964       -1.85280       -1.13555
H          0.18065       -0.35365       -2.12620
H          1.62543       -0.92046       -1.21002
N          0.59191       -0.63723        1.26654
H          1.63713       -0.65175        1.25107
H          0.24365       -1.62141        1.34201
N          0.19025        2.22850        1.13914
H          0.67409        1.84460        1.98286
H         -0.84274        2.19162        1.29457
N          0.00152        2.10615       -1.24306
H          0.36627        3.08523       -1.30426
H         -1.03906        2.15325       -1.17038
