14
Coordinates from ORCA-job run	Energy:      25.2539406
C          0.06562       -0.08969        0.03669
H          1.51408        1.54236       -0.12201
F         -1.30851       -0.21345        0.16613
H          3.87416       -0.09330        0.12452
C          0.41735        1.40047       -0.01352
H          0.08644        1.90101        0.92094
H         -0.09127        1.88964       -0.87185
C          0.50595       -0.78793       -1.25671
H          0.00164       -0.32590       -2.13182
H          1.60616       -0.70421       -1.39195
H          0.22893       -1.86354       -1.22361
N          0.70832       -0.70873        1.19799
H          1.74881       -0.62218        1.13015
H          0.45709       -1.72389        1.24551
