12
Coordinates from ORCA-job run	Energy:      48.7713886
C          1.10376       -0.08959        0.18161
H          1.01711        1.90873       -0.65203
F         -2.06796        0.10123       -1.45051
Cl         2.83042        0.02278        0.61057
C          0.48404        1.30636        0.10153
H          0.56652       -0.67410        0.95938
H         -0.55652        1.24998       -0.23205
N          0.99605       -0.75143       -1.11856
H          0.04346       -0.62271       -1.50574
H          1.09840       -1.78258       -0.99684
C          0.44092        2.00590        1.38689
N          0.38559        2.59643        2.37968
