14
Coordinates from ORCA-job run	Energy:     105.6951162
C         -0.12369       -0.16775        0.02781
H          1.53464        1.13520        0.09700
Cl        -1.89383       -0.10811       -0.06091
F          3.11425       -0.25263       -0.00927
C          0.47434        1.23572        0.04533
H          0.17732       -0.68515        0.95901
N          0.38483       -0.94317       -1.09296
H          1.39837       -1.04018       -0.95801
H          0.31522       -0.37663       -1.96041
C          0.09432        1.98255        1.25854
N         -0.18401        2.59349        2.19660
N          0.18790        1.95692       -1.19304
H          0.86345        2.74321       -1.31995
H         -0.76942        2.35615       -1.14393
