14
Coordinates from ORCA-job run	Energy:      18.4140241
C          0.20365       -0.04186       -0.08340
H          1.78436        1.44341       -0.24955
Cl        -3.06679        0.00747        0.91271
F          3.68716       -0.58862        0.08127
C          0.67875        1.40977       -0.14910
H          0.66518       -0.55331        0.78974
H          0.39880        1.91183        0.80170
N          0.51411       -0.76737       -1.30886
H          0.12955       -1.73478       -1.22066
H          1.55027       -0.83571       -1.42236
C          0.03599        2.16411       -1.30934
H          0.33020        1.70973       -2.27917
H         -1.07089        2.14755       -1.21602
H          0.38046        3.21915       -1.29980
