14
Coordinates from ORCA-job run	Energy:     104.4247738
C          0.05399       -0.04283       -0.19774
H          1.52337        1.57353       -0.46682
F         -1.32262       -0.17067       -0.31158
Cl         2.98283       -0.26443        1.17549
C          0.45670        1.45390       -0.16819
H          0.33346       -0.55080        0.75238
N          0.72079       -0.72012       -1.31588
H          0.08723       -1.42777       -1.74359
H          1.55222       -1.25260       -0.95709
N          0.29205        2.00087        1.17857
H          0.50588        3.02521        1.16383
H          1.01623        1.57379        1.80176
C         -0.37467        2.22267       -1.10056
N         -1.06495        2.82256       -1.81753
