15
Coordinates from ORCA-job run	Energy:      68.6174142
C          0.34000       -0.10901       -0.08829
H          1.68833        1.52977       -0.20046
Br        -1.43979       -0.60686        0.53878
H          2.92245       -0.30819        1.25790
C          0.59118        1.40379       -0.10750
H          1.01417       -0.54829        0.64607
N          0.67429       -0.69222       -1.38519
H         -0.14195       -0.59859       -2.03022
H          0.91916       -1.69955       -1.27457
C          0.17922        2.05986        1.14058
N         -0.12495        2.62076        2.10630
C         -0.08834        2.10743       -1.28812
H          0.30777        1.71238       -2.24690
H         -1.18888        1.96748       -1.26885
H          0.13166        3.19520       -1.26602
