15
Coordinates from ORCA-job run	Energy:      86.4164350
C          0.06780       -0.06310        0.43148
H          1.47290        1.22078        1.50575
F         -1.12487        0.03340        1.13697
H          3.15725       -0.43688       -0.53449
C          0.86278        1.25859        0.57839
H          1.57796        1.37948       -0.26787
N         -0.24129       -0.31111       -0.98446
H         -0.81507       -1.18174       -1.07496
H          0.64759       -0.46545       -1.51898
N          0.83023       -1.16871        1.01223
O          1.13253       -2.11719        0.35282
O          1.09415       -1.15448        2.17268
N         -0.01523        2.41192        0.66879
O         -0.76753        2.67318       -0.21865
O         -0.00427        3.08878        1.65517
