19
Coordinates from ORCA-job run	Energy:      80.4731962
C          1.20318        0.03721        0.19646
H          1.72081        2.00507       -0.51256
Br        -3.10287       -0.98326       -0.52684
F          2.37524        0.03477        0.94129
C          0.82253        1.53728       -0.05435
N          1.49597       -0.61426       -1.09096
H          0.60837       -0.79381       -1.61895
H          1.95704       -1.53743       -0.92614
N          0.19711       -0.71665        0.94375
O         -0.08485       -0.39306        2.06092
O         -0.20921       -1.76118        0.53250
C          0.52780        2.30929        1.24410
H         -0.42689        1.97928        1.70543
H          1.35259        2.18160        1.97527
H          0.42771        3.39407        1.02598
C         -0.33453        1.75294       -1.04337
H         -0.10700        1.30593       -2.03254
H         -1.28110        1.33192       -0.65300
H         -0.47804        2.84280       -1.21616
