15
Coordinates from ORCA-job run	Energy:     121.9061247
C          0.06232       -0.12030        0.04732
H          1.52979        1.55132        0.21567
Cl        -1.72290       -0.29038        0.10720
F          3.09909       -0.09133        0.17555
C          0.45273        1.41483        0.07697
N          0.51002       -0.73059       -1.22633
H         -0.02730       -1.60358       -1.43150
H          1.51919       -0.99794       -1.23353
N          0.61623       -0.85983        1.18678
O          0.93499       -0.29223        2.18869
O          0.88037       -2.01993        1.07463
C         -0.18115        2.18444        1.16132
N         -0.65262        2.83408        1.99565
C          0.14504        2.06876       -1.20060
N         -0.07642        2.55654       -2.22721
