14
Coordinates from ORCA-job run	Energy:     171.0956513
C          1.18439       -0.03499        0.02920
H          1.62685        2.09454       -0.10772
F         -1.78721       -0.08221        0.04496
F          2.55061       -0.02455        0.26456
C          0.71458        1.46084       -0.03882
H          0.20198        1.78331        0.88671
N          0.95996       -0.74843       -1.24140
H         -0.05660       -0.94506       -1.39505
H          1.44955       -1.67280       -1.21597
N          0.55819       -0.73770        1.14949
O          0.55234       -0.20598        2.21983
O          0.51129       -1.93121        1.12569
C         -0.09216        1.86932       -1.20232
N         -0.72619        2.23938       -2.09835
