17
Coordinates from ORCA-job run	Energy:      91.4668436
C         -0.04142       -0.13442       -0.05904
H          1.50955        1.39997       -0.14852
Cl        -1.82278       -0.26882       -0.14902
F          3.28084       -0.04393        0.07751
C          0.40894        1.35587       -0.04786
N          0.53305       -0.80698       -1.22761
H          0.39173       -1.83801       -1.15903
H          1.56253       -0.66322       -1.26967
C          0.35931       -0.82783        1.18113
N          0.64865       -1.34043        2.17700
C          0.07751        2.06678        1.27533
H         -1.00643        1.99953        1.49709
H          0.63956        1.59177        2.11000
H          0.39165        3.12858        1.23073
N         -0.15588        2.07016       -1.19757
H          0.39399        2.94259       -1.37035
H         -1.14645        2.34247       -1.00043
