16
Coordinates from ORCA-job run	Energy:     124.4760966
C          0.10361       -0.07093        0.08549
H          1.65913        1.60474        0.12868
F         -1.25837       -0.05698        0.28335
F          2.83759       -0.24394       -0.17234
C          0.57173        1.41973        0.05339
N          0.30990       -0.76488       -1.19994
H         -0.33821       -1.57818       -1.22048
H          1.25697       -1.14490       -1.40374
C          0.63904       -0.83707        1.24237
N          1.00245       -1.43121        2.16913
C         -0.05629        2.14408        1.18720
N         -0.52418        2.73371        2.04961
C          0.12295        2.07501       -1.26617
H          0.67445        1.62004       -2.12156
H         -0.96282        1.91150       -1.43141
H          0.33346        3.16475       -1.26836
