13
Coordinates from ORCA-job run	Energy:      92.5068918
C          0.02742       -0.06829       -0.05044
H          1.52907        1.54899       -0.38352
Cl        -1.75346       -0.11745       -0.12348
Cl         3.31101       -0.13333        0.58296
C          0.47310        1.42626       -0.04085
H         -0.12975        1.93960       -0.78388
N          0.57262       -0.69464       -1.26271
H          0.00623       -1.51303       -1.55769
H          1.55589       -1.02856       -1.13819
C          0.37039       -0.84671        1.17175
N          0.58640       -1.44865        2.13743
C          0.31560        2.10139        1.25347
N          0.22946        2.59946        2.29405
