15
Coordinates from ORCA-job run	Energy:     115.7522709
C          0.07577       -0.06515        0.01911
H          1.67604        1.52505        0.10032
Cl        -1.70952       -0.04455        0.10253
F          2.93370       -0.27965        0.16775
C          0.58463        1.42640        0.04375
N          0.46084       -0.70853       -1.24768
H         -0.14970       -1.53418       -1.40834
H          1.44443       -1.05670       -1.28670
C          0.50846       -0.90680        1.17442
N          0.81515       -1.58498        2.06595
N          0.04233        2.13006        1.19383
O         -0.59397        3.12600        1.06132
O          0.26434        1.71474        2.29233
C          0.19589        2.08508       -1.22243
N         -0.08325        2.58091       -2.23586
