18
Coordinates from ORCA-job run	Energy:     184.6042558
C          1.17685       -0.02045        0.06808
H          1.61868        2.07130       -0.27152
F         -1.99569       -0.04319       -0.03852
F          2.54122        0.04390        0.30874
C          0.69825        1.48777       -0.04100
N          0.98104       -0.73442       -1.20385
H         -0.04214       -0.87471       -1.38374
H          1.40941       -1.68823       -1.15990
C          0.60716       -0.86460        1.24205
H          1.32316       -1.68625        1.46806
H          0.52507       -0.28921        2.18495
H         -0.36314       -1.35320        1.02974
C          0.12323        2.10213        1.24117
H         -0.85201        1.63353        1.49740
H          0.82769        1.97532        2.08705
H         -0.04590        3.19132        1.10072
C         -0.15359        1.81172       -1.20121
N         -0.82301        2.10611       -2.09655
