15
Coordinates from ORCA-job run	Energy:      40.0110606
C          1.13223       -0.13952       -0.15069
H          1.22792        1.87370        0.70347
Br        -2.82477       -0.63373        0.93907
H          2.16586       -0.15985       -0.55820
C          0.65292        1.32434       -0.07624
H         -0.42058        1.36345        0.19848
N          0.27626       -0.96035       -1.00957
H          0.15641       -0.52287       -1.94743
H         -0.66658       -1.05394       -0.57997
C          1.14848       -0.75108        1.24806
H          1.81770       -0.17254        1.91734
H          0.12361       -0.74589        1.67344
H          1.51029       -1.79815        1.19494
C          0.87362        2.02002       -1.35092
N          1.06783        2.56356       -2.35394
