13
Properties=species:S:1:pos:R:3 Coordinates=T from=T ORCA-job=T run=T Energy:=T 34.6781499=T pbc="F F F"
C        0.08033098      -0.06335076      -0.05589184
H        1.62947406       1.37272544      -0.17985668
Cl      -1.71102259      -0.17630625       0.00254102
Cl       3.46466677       0.10422024       0.55111383
C        0.53769267       1.38513868      -0.02513230
H        0.42929064      -0.56287014      -0.95445869
H        0.49042995      -0.56708220       0.81965117
N        0.17958773       2.05735046       1.19037325
H        0.47958817       3.02449925       1.12962900
H        0.71988355       1.63649752       1.93302544
N       -0.02454225       2.10472630      -1.22912298
O       -0.45130662       3.25068575      -1.08075767
O        0.03491694       1.51644571      -2.30791356
