12
Properties=species:S:1:pos:R:3 Coordinates=T from=T ORCA-job=T run=T Energy:=T 142.7214297=T pbc="F F F"
C        0.95589309       0.11524676       0.25737664
H        1.83004022       2.06668912      -0.10151827
Br      -2.31133684      -0.61398342      -1.52612627
Br       2.68425883      -0.57858344      -0.45447848
C        0.83052943       1.64999603       0.08533017
H        0.18764529      -0.36619587      -0.34569684
H        0.91207926      -0.21612892       1.28798835
C        0.41200581       2.28589221       1.35481126
N        0.15534452       2.82373618       2.37004625
N       -0.01110118       1.93349864      -1.06053357
H       -0.36716344       2.88206796      -1.04348666
H       -0.80953500       1.29874476      -1.10874258
