14
Properties=species:S:1:pos:R:3 Coordinates=T from=T ORCA-job=T run=T Energy:=T 19.2364601=T pbc="F F F"
C        0.21008694      -0.00545055      -0.11944258
H        1.55999917       1.59498472      -0.12184940
F       -1.16305250      -0.25933865       0.07687234
Br       3.78785282      -0.39559590       0.73273272
C        0.46981109       1.48706101      -0.07444523
H        0.44496002      -0.39159199      -1.11567574
H        0.79320664      -0.53154964       0.63842798
C       -0.01059813       2.09409395       1.24961646
H       -1.09934599       2.04043393       1.34883310
H        0.43132960       1.56495206       2.09728061
H        0.30493465       3.13901492       1.29923990
N       -0.12555079       2.11276451      -1.25973589
H        0.07317246       3.10718490      -1.23377264
H       -1.13271598       2.00484671      -1.20696163
