11
Properties=species:S:1:pos:R:3 Coordinates=T from=T ORCA-job=T run=T Energy:=T 16.3930626=T pbc="F F F"
C        1.17497116      -0.01906621      -0.12898454
H        1.86536309       2.04102253      -0.28963684
F       -1.91373031       0.48171373       0.17365637
H        1.90738019      -0.33483061       0.62334801
C        0.93417532       1.48534285      -0.10070053
H        1.52943789      -0.33526709      -1.11454367
H        0.19840773      -0.47252698       0.06428767
H        0.56026676       1.76538956       0.89675731
N       -0.08016347       1.83571870      -1.10710780
H       -0.22962444       2.83990529      -1.03206864
H       -0.95468392       1.36131823      -0.73706735
