13
Properties=species:S:1:pos:R:3 Coordinates=T from=T ORCA-job=T run=T Energy:=T 36.6916465=T pbc="F F F"
C        0.59363651      -0.02465151      -0.31844974
H        1.70506679       1.75090466      -0.75624347
Br      -0.98937501      -0.57204110       0.86323606
F        0.87013046       0.06476286       2.29318522
C        0.73265343       1.48786870      -0.30633494
H        0.44198001      -0.45046652      -1.30282717
H        1.42635894      -0.46946607       0.22459175
N        0.49548221       2.07976728       0.95935666
H        1.06319528       2.90456080       1.08534421
H        0.68138115       1.29784364       1.68584187
N       -0.21747187       2.13493721      -1.29932561
O       -0.43907634       3.33407546      -1.13272309
O       -0.60391156       1.47515458      -2.25820175
