14
Properties=species:S:1:pos:R:3 Coordinates=T from=T ORCA-job=T run=T Energy:=T 24.7156492=T pbc="F F F"
C        1.09990356       0.04986017       0.12504796
H        1.82909352       2.04797682       0.15925088
F       -1.83980783       0.37585484      -0.53022812
F        2.13626987      -0.32044529      -0.77136619
C        0.85260931       1.55739849       0.07935044
H        0.16491169      -0.40639882      -0.19471576
H        1.44428007      -0.27992674       1.10869788
C       -0.04572425       2.00269985       1.25247265
H       -0.99997548       1.47348159       1.12507750
H        0.40547235       1.77360727       2.22684250
H       -0.21579814       3.08168940       1.19800479
N        0.23198862       1.83613083      -1.22052226
H        0.06393515       2.83649341      -1.27947599
H       -0.69660844       1.34074817      -1.15642629
