14
Properties=species:S:1:pos:R:3 Coordinates=T from=T ORCA-job=T run=T Energy:=T 22.7937709=T pbc="F F F"
C        0.17356389      -0.03599870       0.16744556
H        1.45008646       1.60798661       0.38567565
Cl      -1.56753249      -0.49623469      -0.06062959
Cl       3.26446840      -0.11378795      -1.41278014
C        0.39858237       1.45531151       0.12783080
H        0.79614465      -0.56106047      -0.55660326
H       -0.22508796       1.94781632       0.87824352
N        0.54292575      -0.64192799       1.48723766
O        0.50103438       0.08863687       2.47229406
O        0.80225068      -1.84064822       1.49262682
C        0.15342457       2.03471670      -1.25963502
H        0.82177716       1.53148982      -1.96214663
H       -0.88417908       1.90622841      -1.57650500
H        0.38957122       3.10235178      -1.24656443
