13
Properties=species:S:1:pos:R:3 Coordinates=T from=T ORCA-job=T run=T Energy:=T 36.3485957=T pbc="F F F"
C        0.19509089      -0.05305354       0.08968653
H        1.58522624       1.50862920       0.22982300
Br      -1.73876606      -0.38760176      -0.11327259
Cl       3.57544605       0.33358638      -0.56629453
C        0.50615648       1.42948506       0.06847795
H        0.69206629      -0.62789952      -0.68953990
H       -0.03117440       1.91940311       0.88960307
N        0.52713021      -0.69330758       1.40309606
O        0.40178901      -0.00226705       2.40996220
O        0.80083078      -1.88993396       1.38391687
N        0.17936767       2.01401275      -1.23355491
H        0.50866747       2.97086006      -1.21809951
H       -0.82678062       2.03441685      -1.35057425
