16
Properties=species:S:1:pos:R:3 Coordinates=T from=T ORCA-job=T run=T Energy:=T 56.2098379=T pbc="F F F"
C        0.85570712       0.00076527       0.18235895
H        1.70749473       1.96580716       0.52245015
Cl      -2.17243988       0.06171600      -1.40412105
Cl       2.07705988      -0.51955311      -1.05431435
C        0.73823097       1.53442017       0.24967757
H       -0.08627732      -0.42708692      -0.15082735
N        1.27084712      -0.70798598       1.41995990
O        2.08750115      -0.13757034       2.14043153
O        0.83120442      -1.84448768       1.60121868
C       -0.30671637       2.01228774       1.28683684
H       -1.30225312       1.68081910       0.98929273
H       -0.08308078       1.66898885       2.30094286
H       -0.29368053       3.10821106       1.25625912
N        0.42413718       1.92897061      -1.12090204
H        0.05499628       2.87957010      -1.13494716
H       -0.33376084       1.31419796      -1.43614637
