15
Properties=species:S:1:pos:R:3 Coordinates=T from=T ORCA-job=T run=T Energy:=T 34.7926170=T pbc="F F F"
C        0.57199731      -0.08306639      -0.04548597
H        1.43398946       1.56347794      -1.04323848
Cl       0.16227260      -1.00750540      -1.55102466
F        2.93458039       0.17877542       1.24590871
C        0.65990384       1.42782937      -0.27963572
H        1.57904594      -0.35879476       0.30684226
C       -0.45665663      -0.37873686       0.94604970
N       -1.32305062      -0.64080068       1.69489647
N        1.05939394       1.99029725       1.00152305
H        1.38188737       2.93736980       0.82135438
H        1.89475520       1.40499576       1.26518473
C       -0.64130884       2.03860736      -0.75763933
H       -0.96226681       1.59395622      -1.69884823
H       -1.42271759       1.93763760      -0.00614028
H       -0.48407555       3.10430736      -0.92242661
