14
Properties=species:S:1:pos:R:3 Coordinates=T from=T ORCA-job=T run=T Energy:=T 68.4595158=T pbc="F F F"
C        0.61807759       0.11133011      -0.12112856
H        1.62925611       1.93964328      -0.02317464
Cl      -1.06029948      -0.60118823      -0.12260628
H        1.05232595      -1.57076610       1.08968513
C        0.57456038       1.64303702      -0.02038451
H        1.08621257      -0.18519325      -1.05210019
C        1.42278919      -0.52304485       0.99792127
N        2.14611268      -0.01726345       1.85367026
N       -0.04502169       2.14112073       1.20282403
H        0.64269020       2.21714875       1.94290269
H       -0.75937230       1.48272921       1.49668274
N       -0.07414633       2.15038365      -1.21180716
H        0.17848375       3.12445055      -1.34178310
H       -1.07438861       2.12769259      -1.05035168
