12
Properties=species:S:1:pos:R:3 Coordinates=T from=T ORCA-job=T run=T Energy:=T 30.5647475=T pbc="F F F"
C        0.99424733      -0.03660522       0.21958187
H        1.57426804       1.99178053       0.60994872
Cl      -2.71035757       0.65129538      -1.51243205
Cl       2.40048912      -0.37043592      -0.91181378
C        0.68779096       1.45663324       0.24320023
H        0.14870225      -0.57950575      -0.20774950
H       -0.13992067       1.61918123       0.94617611
C        1.32667752      -0.57710468       1.53448352
N        1.62937066      -1.03223642       2.57578878
N        0.34406796       1.88937944      -1.10297628
H       -0.10852140       2.79552206      -1.02442236
H       -0.37722419       1.26417609      -1.46357527
