14
Properties=species:S:1:pos:R:3 Coordinates=T from=T ORCA-job=T run=T Energy:=T 164.4552620=T pbc="F F F"
C        0.84276094      -0.04412907       0.20020934
H        1.78979338       1.87402463       0.56541455
Cl      -2.32660824       0.45314358      -1.14690854
F        1.65130455      -0.50769225      -0.86469648
C        0.83993050       1.47717614       0.17802141
H       -0.18158794      -0.36788851       0.00344653
C        1.37093742      -0.61163999       1.43934029
N        1.86481823      -1.11320948       2.37916049
N       -0.16923220       1.93276252       1.21336567
O       -0.54940885       3.10073743       1.14960394
O       -0.52246257       1.10784410       2.05262566
N        0.53203184       1.95717355      -1.12943791
H        0.35302426       2.95058834      -1.04960597
H       -0.34514132       1.52660902      -1.43063898
