14
Properties=species:S:1:pos:R:3 Coordinates=T from=T ORCA-job=T run=T Energy:=T 104.1093565=T pbc="F F F"
C        0.63578836       0.01149064       0.01228505
H        1.80097300       1.66349262      -0.03356328
Cl      -2.12072393      -0.34235856      -0.18760464
F        3.13991841       0.02591906      -0.04488727
C        0.70392460       1.51275703       0.01381580
H        0.89447639      -0.51584738      -0.91557553
C        0.70330272      -0.68998670       1.26258450
N        0.67960982      -1.27895290       2.28694703
C        0.05223836       2.09531061       1.27907047
H       -0.96039122       1.67914869       1.37398646
H        0.64942158       1.79115511       2.14503688
H       -0.04812978       3.18844217       1.24023749
C        0.02080008       2.00418518      -1.17835882
N       -0.49521838       2.42621442      -2.15270414
