13
Properties=species:S:1:pos:R:3 Coordinates=T from=T ORCA-job=T run=T Energy:=T 93.6756256=T pbc="F F F"
C        0.22397545      -0.04199043       0.20770298
H        1.59854084       1.54046469       0.41447443
Br      -1.62413281      -0.46605312      -0.40413997
Br       3.22675733      -0.27703647      -1.48870944
C        0.51968798       1.47281658       0.21761284
H        0.90343783      -0.47761209      -0.53178207
C        0.43365001      -0.68931830       1.49524704
N        0.55284510      -1.24884139       2.52056866
C       -0.14354243       2.17151512       1.32760159
N       -0.62270706       2.79968100       2.19934710
N        0.28577916       2.01789339      -1.10641436
H        0.46755939       3.01272989      -1.10777652
H       -0.67746080       1.87317113      -1.38345230
