14
Properties=species:S:1:pos:R:3 Coordinates=T from=T ORCA-job=T run=T Energy:=T 36.6270338=T pbc="F F F"
C        0.45721878       0.01171277       0.27436005
H        1.67154111       1.71238876       0.41813701
Cl      -1.06048159      -0.57412088      -0.64191793
F        1.28468846      -0.63688493      -1.84847665
C        0.61162645       1.50587051       0.24569265
H        1.21112983      -0.40519890      -0.66846473
C        0.62113102      -0.61391267       1.55932968
N        0.72282727      -1.10489274       2.62572655
C       -0.12389773       2.12857982       1.33414710
N       -0.73210166       2.62853161       2.20968624
C        0.22676522       2.07101448      -1.11863097
H        0.66343782       1.34670055      -1.80809206
H       -0.85713412       2.06655634      -1.23449607
H        0.60764944       3.09673521      -1.22871047
