15
Properties=species:S:1:pos:R:3 Coordinates=T from=T ORCA-job=T run=T Energy:=T 161.8771913=T pbc="F F F"
C        0.96560926      -0.02530368       0.01802041
H        1.74717826       1.97730372       0.03296258
Cl      -2.07282595      -0.10132748       0.05355247
Cl       2.69161192      -0.35832542      -0.46517556
C        0.75497009       1.50125039       0.07433802
H        0.32256605      -0.48104466      -0.73025236
C        0.73312198      -0.68785536       1.29663107
N        0.62446393      -1.26610334       2.31344861
C        0.02642460       2.06929159       1.28470824
H       -0.91663475       1.54667662       1.45002116
H        0.66883933       1.96053917       2.15914037
H       -0.15237999       3.12517331       1.09841045
N        0.11920026       1.91580573      -1.22312308
O       -0.48139307       2.99010666      -1.22628096
O        0.33568808       1.24122277      -2.22982142
