12
Properties=species:S:1:pos:R:3 Coordinates=T from=T ORCA-job=T run=T Energy:=T 132.8605877=T pbc="F F F"
C        0.77900775      -0.00612817       0.13521039
H        1.81083923       1.84669133       0.48105601
Br      -2.39405049      -0.95132584      -0.71213060
Cl       2.03819859      -0.54611924      -1.08013671
C        0.78996676       1.54081593       0.20095339
H       -0.19435324      -0.36407930      -0.22903078
C        1.10965013      -0.61044642       1.42430325
N        1.47876728      -1.13545781       2.40958249
C       -0.12986292       2.11060681       1.21228887
N       -0.79421657       2.62051621       2.04237365
C        0.53183727       2.11464786      -1.13064307
N        0.44149622       2.63083864      -2.18454688
