16
Properties=species:S:1:pos:R:3 Coordinates=T from=T ORCA-job=T run=T Energy:=T 44.6174129=T pbc="F F F"
C        0.06931754      -0.07789877       0.11462747
H        1.64742732       1.27537415      -0.05832397
Cl      -1.74165768      -0.15245256      -0.02541338
Cl       3.53278991      -0.16699858      -0.60866256
C        0.54971976       1.36882653       0.01142225
H        0.47466146      -0.61259071      -0.74758174
C        0.48252243      -0.76680332       1.39568848
H        1.56889700      -0.71330033       1.47803363
H        0.00119656      -0.29833416       2.25709306
H        0.18108528      -1.81328021       1.34547785
C        0.19695233       2.09843211       1.22778167
N       -0.09053084       2.68270243       2.20561375
C        0.03008026       2.09550865      -1.22964279
H        0.35686013       1.55529753      -2.11815565
H       -1.06124710       2.13603571      -1.22397520
H        0.43484566       3.11093153      -1.27044286
