13
Properties=species:S:1:pos:R:3 Coordinates=T from=T ORCA-job=T run=T Energy:=T 137.4412502=T pbc="F F F"
C        0.95620165      -0.05282827       0.10344020
H        1.86280119       1.92264487       0.01631151
Br      -2.56604484      -0.11609174      -0.59633366
Br       2.90997277      -0.58412962      -0.59163823
C        0.86399669       1.49981943       0.11424495
H        0.31828949      -0.44856033      -0.69955093
H        0.29404414       1.81810808      -0.76134333
C        0.73783691      -0.77325807       1.39357005
H        1.46477803      -0.50472864       2.16537289
H       -0.27635069      -0.54119932       1.78700629
H        0.79967547      -1.85052878       1.24617317
C        0.23978854       2.08948005       1.30287592
N       -0.21640936       2.52257235       2.29763117
