17
Properties=species:S:1:pos:R:3 Coordinates=T from=T ORCA-job=T run=T Energy:=T 40.4236076=T pbc="F F F"
C        0.56896713      -0.17834723      -0.03397030
H        1.41820957       1.46786626      -1.04264587
Cl      -0.05584821      -0.96011415      -1.56299888
H        3.76456447       0.55402977       0.77250415
C        0.70089425       1.33114119      -0.22705798
H        1.58996213      -0.54198028       0.09418522
C       -0.30836002      -0.54570785       1.14206490
H        0.05122312      -0.03286315       2.03426988
H       -1.34440485      -0.24140993       0.96772738
H       -0.28605443      -1.62258344       1.32277129
N        1.24417152       1.87487008       1.01920391
H        1.45582119       2.85370000       0.83959663
H        2.17721993       1.42044831       1.09089315
C       -0.60570095       2.03086818      -0.59150447
H       -1.08557152       1.55936234      -1.45010278
H       -1.28817269       2.06402145       0.25882926
H       -0.37840065       3.06310843      -0.85283550
