16
Properties=species:S:1:pos:R:3 Coordinates=T from=T ORCA-job=T run=T Energy:=T 53.2632236=T pbc="F F F"
C        0.49498701      -0.03218108      -0.06159494
H        1.17016790       1.65611298      -1.16326826
Cl      -0.44448308      -0.80083519      -1.41480079
F        3.10742501       0.07104121       0.82384770
C        0.59802559       1.49170012      -0.23791715
H        1.51924654      -0.39043986      -0.13243731
C       -0.11634758      -0.44215477       1.26308472
H        0.46378382       0.00028714       2.07139781
H       -1.15362117      -0.11307149       1.35753705
H       -0.09239346      -1.53164219       1.37066401
N        1.29090046       1.99526565       0.93143734
H        1.57570449       2.94238298       0.70348577
H        2.14440493       1.39117779       1.01876225
N       -0.65511153       2.21167648      -0.39782200
H       -1.02132716       2.43692726       0.51854276
H       -1.31850177       1.61273299      -0.86695898
