16
Properties=species:S:1:pos:R:3 Coordinates=T from=T ORCA-job=T run=T Energy:=T 68.9190660=T pbc="F F F"
C        0.00173000      -0.07936806       0.06662019
H        1.58600667       1.30455530      -0.07623755
F       -1.40413836      -0.06551996       0.09665020
Br       3.92737373      -0.11752078      -0.05461512
C        0.49309235       1.36597632       0.02421147
H        0.27965065      -0.56742644      -0.87028748
C        0.49865027      -0.83414436       1.27825739
H        1.58830319      -0.80298954       1.29706748
H        0.07466081      -0.37783818       2.17556700
H        0.16460842      -1.87401043       1.22073016
C        0.10672291       2.16791469       1.27488694
H       -0.93791423       1.98523270       1.53784343
H        0.75305924       1.89063034       2.10725875
H        0.23171653       3.23457371       1.09576695
C       -0.05586007       1.99388371      -1.18009197
N       -0.50802210       2.48700098      -2.14553783
