17
Properties=species:S:1:pos:R:3 Coordinates=T from=T ORCA-job=T run=T Energy:=T 37.6184069=T pbc="F F F"
C        0.13815408      -0.04042316       0.12433679
H        1.65744836       1.36177907       0.17178116
F       -1.28738652      -0.11397187       0.05989245
F        2.70769488      -0.03694347      -0.45380937
C        0.56198216       1.41785748       0.10948290
H        0.52963312      -0.47704435      -0.78608090
C        0.64762379      -0.83715669       1.30029221
H        1.71974653      -0.64378915       1.37351065
H        0.12756373      -0.58097938       2.22578988
H        0.48658492      -1.90337266       1.10501331
C       -0.02253348       2.20041622       1.29325640
H       -1.10818638       2.07506547       1.34136311
H        0.40658906       1.86532621       2.24163689
H        0.18846067       3.26638512       1.19242382
N        0.18245027       1.94111424      -1.20674711
H        0.23528632       2.95293081      -1.19204261
H       -0.78520152       1.66911611      -1.34299957
