12
Properties=species:S:1:pos:R:3 Coordinates=T from=T ORCA-job=T run=T Energy:=T 0.8548848=T pbc="F F F"
C        1.00347936      -0.07239300       0.00295949
H        1.67143698       1.85683365       0.76587078
Br      -2.68861700       0.05201938      -0.01225787
Br       2.72078179      -0.64160172      -0.82456911
C        0.92896838       1.44355318       0.07617790
H        0.23611768      -0.43913996      -0.68247005
H       -0.07517412       1.69176841       0.43074784
H        1.06637466       1.90408916      -0.90711814
C        0.82531148      -0.73627079       1.35815860
H        1.56449069      -0.38652107       2.08556109
H       -0.17900025      -0.47728116       1.70450646
H        0.88997034      -1.82659608       1.28649301
