17
Properties=species:S:1:pos:R:3 Coordinates=T from=T ORCA-job=T run=T Energy:=T 36.2209310=T pbc="F F F"
C        0.73630391      -0.04116235       0.08455821
H        1.86786103       1.71101307       0.38657358
Br      -3.16582363      -0.50774029      -0.16790740
F        1.64912552      -0.45215276      -0.92355594
C        0.82852646       1.48637366       0.12367177
H       -0.26290197      -0.33563772      -0.25104527
C        1.11654667      -0.71598956       1.38142828
H        2.07006152      -0.31942144       1.74476382
H        0.36157922      -0.56744168       2.15232525
H        1.21916632      -1.79327799       1.22824193
C       -0.12042729       2.07533340       1.17254990
H       -1.12147450       1.65629350       1.03276660
H        0.21227697       1.86604710       2.19239490
H       -0.19655315       3.15592501       1.06075246
N        0.58891343       1.99558556      -1.23375573
H        0.93252108       2.94913613      -1.27750836
H       -0.40900158       2.01155637      -1.40630400
