17
Properties=species:S:1:pos:R:3 Coordinates=T from=T ORCA-job=T run=T Energy:=T 33.8221703=T pbc="F F F"
C        0.31202839      -0.30021225       0.00156266
H        2.05663771       1.47276360       0.17301537
Br      -3.26804955       0.78087159       0.34874823
H        2.67873909       1.47895662       0.29081704
C        0.37089964       1.16882229      -0.01999830
H        0.18461129      -0.84768720      -0.94919804
C        0.83591658      -0.99286000       1.23483788
H        1.83857428      -0.58367286       1.44212463
H        0.24689738      -0.73454241       2.10762036
H        0.84020883      -2.08218658       1.12370079
C        0.08173245       1.93695601       1.19725451
H       -0.98737465       2.02666786       1.37312191
H        0.52990963       1.46574625       2.04695081
H        0.50161933       2.94242447       1.12591858
N        0.25224588       1.81759824      -1.29017107
O        0.14460303       3.06228205      -1.30977248
O        0.22899070       1.19229231      -2.37418287
