12
Properties=species:S:1:pos:R:3 Coordinates=T from=T ORCA-job=T run=T Energy:=T 49.9281993=T pbc="F F F"
C        0.12410617      -0.07730140       0.04450587
H        1.74110467       1.20336883      -0.06363645
Cl      -1.70380631      -0.09356958       0.01739014
F        2.98021927      -0.06694708       0.36344319
C        0.63721128       1.35014655      -0.04265858
H        0.40266069      -0.58733749      -0.88561701
H        0.35608318       1.88099137       0.86993702
N        0.63952269      -0.67650237       1.23180239
H        1.68614139      -0.56751945       1.06059854
H        0.40145761      -1.66369801       1.21759225
C        0.12336869       2.05326890      -1.20465503
N       -0.29266930       2.62262973      -2.14564234
