16
Properties=species:S:1:pos:R:3 Coordinates=T from=T ORCA-job=T run=T Energy:=T 59.7130293=T pbc="F F F"
C        0.75132126      -0.07831247      -0.04425579
H        1.64204003       1.72432500       0.58756249
F       -1.65084308      -0.18702160       0.65814522
F        1.72914200      -0.38883138      -1.03110368
C        0.71956803       1.43893555       0.08255712
H       -0.23592592      -0.40518064      -0.33823873
N        1.14852862      -0.68442438       1.18912721
H        1.64814653      -1.53499791       0.96777956
H        0.28055112      -0.92345470       1.65840926
N       -0.32557377       1.84153180       1.07878750
O       -1.22816028       2.59231429       0.72846727
O       -0.12795971       1.50440832       2.24219699
C        0.49461200       2.13724858      -1.24528449
H        1.19546747       1.72451919      -1.96882919
H       -0.52178480       1.97983127      -1.59801769
H        0.65223051       3.21623909      -1.17031305
