17
Properties=species:S:1:pos:R:3 Coordinates=T from=T ORCA-job=T run=T Energy:=T 38.1919692=T pbc="F F F"
C        0.05108451      -0.13394476       0.02995386
H        1.55410256       1.21106215      -0.07002447
Br      -2.03301040      -0.33080181       0.08103589
H        3.13719280       0.20394381       0.75161772
C        0.45711908       1.31994906      -0.03874352
H        0.27861947      -0.61450517      -0.92650751
N        0.61444813      -0.77417028       1.16584916
H        1.62812053      -0.48628376       1.13800751
H        0.57838720      -1.77808453       1.01972823
C        0.16418879       2.08889697       1.24738219
H       -0.84944286       1.93160828       1.62047450
H        0.86946064       1.74416105       2.00518968
H        0.32384208       3.15824930       1.09113092
C       -0.00630704       2.01640936      -1.31361268
H        0.56449257       1.63704304      -2.16779842
H       -1.06846623       1.84994929      -1.51188222
H        0.18692818       3.09141800      -1.24891084
