13
Properties=species:S:1:pos:R:3 Coordinates=T from=T ORCA-job=T run=T Energy:=T 63.8013813=T pbc="F F F"
C        0.12176918      -0.06517306      -0.00401920
H        1.75782603       1.25482740      -0.26073481
F       -1.27687771       0.00701555      -0.13433848
H        3.05244096      -0.32621173       0.61636294
C        0.67752318       1.33536591      -0.07542181
H        0.49553399      -0.63458554      -0.86037634
H        0.46780564       1.88278739       0.83609028
N        0.47588078      -0.64975824       1.25290299
H        1.52758372      -0.59041519       1.25419381
H        0.26846963      -1.64091013       1.16758940
N        0.03735564       2.09499236      -1.18515077
O       -0.50243321       3.17040746      -0.91861062
O        0.08332217       1.59492782      -2.30957740
