15
Properties=species:S:1:pos:R:3 Coordinates=T from=T ORCA-job=T run=T Energy:=T 58.3109746=T pbc="F F F"
C        0.06574963      -0.08765034       0.12521480
H        1.61573549       1.24111717       0.05495979
F       -1.34128034      -0.12710526       0.18654978
F        2.90517954      -0.12724527       0.11953872
C        0.51382383       1.36329808       0.03119201
H        0.34429471      -0.57187297      -0.82256873
N        0.64803087      -0.68609925       1.28119132
H        1.67325261      -0.63733032       1.02798812
H        0.35429240      -1.65541776       1.29836814
C        0.02969036       2.08802896       1.20325291
N       -0.35252587       2.70188369       2.12984140
C        0.06158400       2.02514526      -1.27217247
H        0.49542590       1.47147548      -2.10674622
H       -1.02510976       2.01771657      -1.38877858
H        0.41085665       3.05976596      -1.32651098
