14
Properties=species:S:1:pos:R:3 Coordinates=T from=T ORCA-job=T run=T Energy:=T 106.5343995=T pbc="F F F"
C        0.68269932       0.05043977      -0.13334078
H        1.74844240       1.62280497       1.01343732
Cl      -1.92874727      -1.93817844       1.22902724
H        1.16325529      -0.18330683      -1.09426988
C        0.97258769       1.53840583       0.24096110
H       -0.39353648      -0.11439224      -0.24957732
N        1.24449182      -0.82686888       0.89658846
H        1.25017883      -1.75314853       0.47785932
H        0.56494687      -0.90102920       1.65067913
N       -0.26504618       2.18517422       0.84822066
O       -1.20729541       2.35526613       0.07298620
O       -0.24881186       2.47247368       2.03667178
C        1.28461682       2.39463857      -0.90510272
N        1.53003817       3.08094094      -1.82853051
