15
Properties=species:S:1:pos:R:3 Coordinates=T from=T ORCA-job=T run=T Energy:=T 88.5831074=T pbc="F F F"
C        1.29299206       0.10811221       0.20730615
H        1.86511717       2.07565874      -0.41674158
F       -1.59363162      -0.80084739      -0.88620157
H        2.24936339       0.04812094       0.74399548
C        0.97094308       1.59575941       0.00582583
H        1.44920055      -0.34049696      -0.78447904
N        0.23057665      -0.54160816       0.95211708
H        0.61350503      -1.41387413       1.29347632
H       -0.55454298      -0.77127413       0.27033697
C        0.75099924       2.20429676       1.31975394
N        0.60749211       2.72968476       2.36266466
C       -0.21449367       1.78964735      -0.93944634
H        0.13449449       1.57037023      -1.95393612
H       -0.99972109       1.03595165      -0.74333434
H       -0.59726441       2.81423873      -0.91685743
