13
Properties=species:S:1:pos:R:3 Coordinates=T from=T ORCA-job=T run=T Energy:=T 26.0740483=T pbc="F F F"
C        1.05401786      -0.03537880      -0.11255970
H        1.05961864       1.98572779       0.63869526
F       -1.46488314      -0.17123418       1.16368671
F        2.31160012       0.04525402      -0.74658746
C        0.45674001       1.33882245       0.00918587
H        0.41238698      -0.62628109      -0.76714399
H       -0.56018840       1.12696142       0.40112506
N        1.16090783      -0.58764634       1.20227327
H        1.46342239      -1.54942801       1.08961898
H        0.15276327      -0.59923027       1.48083618
N        0.36973458       1.98585873      -1.32124164
O        0.83505313       3.12091942      -1.44900811
O       -0.16189328       1.34389488      -2.22749042
