16
Properties=species:S:1:pos:R:3 Coordinates=T from=T ORCA-job=T run=T Energy:=T 40.0278047=T pbc="F F F"
C        0.31968650      -0.08208539       0.45719918
H        1.74558169       1.45872751       0.40904363
Br      -3.72648231      -0.36961156      -0.65674865
H        2.78449119       0.36911241      -1.05789703
C        0.65774858       1.40651225       0.25133422
H       -0.00578018      -0.56463982      -0.47762711
N        1.12517385      -0.86501667       1.31777060
H        1.97843550      -1.09790986       0.79184877
H        0.60216279      -1.71193152       1.54363712
N        0.00338615       2.24485369       1.30793126
O       -0.70244940       3.20169655       0.96026693
O        0.25053625       1.97037326       2.48890885
C        0.35003697       1.91024762      -1.15155088
H        0.96690487       1.29155818      -1.80744337
H       -0.71105813       1.83285042      -1.40608277
H        0.66016568       2.94978293      -1.30380076
