13
Properties=species:S:1:pos:R:3 Coordinates=T from=T ORCA-job=T run=T Energy:=T 75.2905897=T pbc="F F F"
C        0.11209066      -0.12013227       0.04646372
H        1.73374851       1.14357920       0.06078282
Cl      -1.69515399      -0.26298253      -0.01163912
F        2.90425729       0.18954720       0.21736183
C        0.56995020       1.33258665       0.02007487
H        0.44003928      -0.57063962      -0.89488294
N        0.63660489      -0.72192555       1.22949369
H        1.66019871      -0.62333429       1.07060371
H        0.36844190      -1.69735213       1.23211606
C        0.09322032       2.04621487       1.19301576
N       -0.30497686       2.65145279       2.11734104
C        0.15631863       2.01507069      -1.19619503
N       -0.20808954       2.55230498      -2.17628642
