14
Properties=species:S:1:pos:R:3 Coordinates=T from=T ORCA-job=T run=T Energy:=T 97.2880891=T pbc="F F F"
C        0.64204390      -0.02126785      -0.18045878
H        1.23215461       1.72820355      -1.22184441
F        0.15828812      -0.66654200      -1.32819117
H        2.77350065       0.29406032       1.77239627
C        0.57140757       1.48581946      -0.37942555
H        1.69670782      -0.29853470      -0.05529862
N       -0.17846131      -0.37432478       0.94826053
H        0.44410397      -0.24164561       1.74567439
H       -0.34565861      -1.37384644       0.87747909
N        1.01771888       2.15612461       0.83177678
H        1.82727002       1.57482796       1.13122001
H        0.33785124       1.86772454       1.53573778
C       -0.80296136       1.88370356      -0.71238407
N       -1.87484550       2.29885738      -0.95760224
