16
Properties=species:S:1:pos:R:3 Coordinates=T from=T ORCA-job=T run=T Energy:=T 49.5879386=T pbc="F F F"
C        0.39609386       0.05503571       0.07492677
H        1.55479082       1.85115787       0.04239234
F       -0.93904226      -0.26908438      -0.25905684
Br       3.57744625      -1.77097022      -0.94668238
C        0.50028176       1.56791360       0.11186542
H        1.04398465      -0.35716669      -0.69540929
N        0.74075868      -0.46939529       1.36417201
H        1.28448951      -1.29995075       1.18997811
H       -0.09622959      -0.71514458       1.87878879
C       -0.16266770       2.17389869       1.33108017
H       -1.18286567       1.80916546       1.44768606
H        0.41062173       1.88384491       2.20962889
H       -0.18627537       3.25825720       1.24356358
N       -0.11521351       2.03905772      -1.18119765
O       -1.05383436       2.82864320      -1.15545462
O        0.39432120       1.58993756      -2.20564137
