14
Properties=species:S:1:pos:R:3 Coordinates=T from=T ORCA-job=T run=T Energy:=T 59.0260102=T pbc="F F F"
C        0.11366128      -0.08262477       0.10655514
H        1.64479306       1.25177670       0.14583340
Cl      -1.70403987      -0.22875833       0.11940673
F        2.89748723       0.14241539       0.08841852
C        0.52959685       1.37998524       0.08325677
H        0.40727611      -0.50755034      -0.85551771
N        0.67773200      -0.74118425       1.23856083
H        1.69470034      -0.65065632       1.01777847
H        0.38073828      -1.71136465       1.20918038
C        0.00013779       2.05684160       1.27105438
N       -0.43229767       2.63680850       2.19811009
N        0.20511437       1.98580857      -1.19599067
H        0.52209506       2.94653904      -1.22172630
H       -0.79275484       1.94610362      -1.37897004
