15
Properties=species:S:1:pos:R:3 Coordinates=T from=T ORCA-job=T run=T Energy:=T 62.2358190=T pbc="F F F"
C        0.28079152      -0.03463190      -0.28051810
H        1.61322111       1.61586534      -0.56000227
Cl      -1.43227773      -0.33182204       0.21888591
H        2.20073018       0.17107349       2.17831381
C        0.56968659       1.47213878      -0.26354902
H        0.91801562      -0.46656665       0.50813687
N        0.52857421      -0.74744196      -1.57062361
O        1.26332641      -0.18373478      -2.39026455
O        0.04526330      -1.87612497      -1.71333572
N        0.35221737       1.91149886       1.12202173
H        0.67495809       2.87446921       1.18459086
H        1.04365771       1.36537512       1.68073476
N       -0.29371102       2.16983634      -1.20854806
H        0.05285578       3.11951411      -1.30513260
H       -1.22031914       2.19974104      -0.79538003
