15
Properties=species:S:1:pos:R:3 Coordinates=T from=T ORCA-job=T run=T Energy:=T 59.9335893=T pbc="F F F"
C        0.24027647       0.01206970      -0.27056074
H        1.54223505       1.64759104      -0.62968138
Br      -1.66740281      -0.28577724       0.16242338
Br       2.84180547      -0.48550766       2.21809093
C        0.52121055       1.50828129      -0.27633763
H        0.81272146      -0.47302738       0.53028950
N        0.52198839      -0.67136395      -1.56586985
O        1.07514588      -0.02539647      -2.45629303
O        0.18514083      -1.85221603      -1.64947077
N        0.38203234       1.95918800       1.10749387
H        0.59346053       2.95139250       1.12787916
H        1.10048045       1.48966636       1.64696078
N       -0.38631743       2.20175748      -1.17599523
H       -0.03528936       3.14139561      -1.33264332
H       -1.29379783       2.26398674      -0.72762568
