13
Properties=species:S:1:pos:R:3 Coordinates=T from=T ORCA-job=T run=T Energy:=T 38.8609048=T pbc="F F F"
C        0.21458117      -0.00806699      -0.28567085
H        1.72399739       1.47716053      -0.62532986
Br      -1.74344589      -0.11503851       0.01017916
Cl       3.05550275      -0.27578534       1.33940499
C        0.68230329       1.44952150      -0.29435890
H        0.68461612      -0.53676939       0.53929976
H        0.66636806       1.76706757       0.75361109
N        0.50653630      -0.88693395      -1.48070231
O        0.76784089      -0.36056648      -2.55715358
O        0.41479652      -2.09652811      -1.27790590
N       -0.09454887       2.38491926      -1.09145774
H        0.32097273       3.30040063      -0.93946390
H       -1.05508046       2.39145928      -0.76472195
