13
Properties=species:S:1:pos:R:3 Coordinates=T from=T ORCA-job=T run=T Energy:=T 49.3097784=T pbc="F F F"
C        0.93190264      -0.07453169       0.05612300
H        1.38218991       1.95642735      -0.58466176
F       -2.68457227       0.22307305      -0.47030827
Cl       2.49460906      -0.39357199       0.89624291
C        0.61309868       1.39656339      -0.06189876
H        0.15784469      -0.61503319       0.58582508
H       -0.36950711       1.51741841      -0.55409014
N        1.08379160      -0.72631103      -1.28806786
O        1.58667916      -0.06303842      -2.19173579
O        0.75457655      -1.90705476      -1.35805085
N        0.52625038       2.00183170       1.30300924
O        0.89141809       3.17191113       1.43690103
O       -0.00392139       1.32029604       2.18199216
