14
Properties=species:S:1:pos:R:3 Coordinates=T from=T ORCA-job=T run=T Energy:=T 23.2188034=T pbc="F F F"
C        0.57013937       0.01541415      -0.30421514
H        1.80303407       1.46578612      -1.14750359
Cl      -1.02148853      -0.24539434       0.53203279
Cl       1.82217933      -0.91777810       2.58980402
C        0.89449636       1.47993932      -0.53337859
H        1.27512179      -0.41978133       0.42150331
H        1.13924454       1.88056974       0.46142660
N        0.61435250      -0.84739336      -1.55120828
O        1.25418894      -0.38469441      -2.50798251
O        0.09389296      -1.96501682      -1.54158014
C       -0.22143858       2.29692882      -1.19788460
H       -0.55756433       1.88535489      -2.15199655
H       -1.08484729       2.35485215      -0.53939121
H        0.11613889       3.32539317      -1.35204611
