15
Properties=species:S:1:pos:R:3 Coordinates=T from=T ORCA-job=T run=T Energy:=T 36.6063157=T pbc="F F F"
C        0.25532502      -0.01665775      -0.02541562
H        1.67308901       1.49295518      -0.07932915
Cl      -1.53304871      -0.30514859       0.14997109
F        2.37750663      -0.50428965       0.77906740
C        0.58243860       1.45689747      -0.02633831
H        0.14165818       1.89011315      -0.92194711
N        0.60747825      -0.65865217      -1.37090858
O        0.60603365       0.07612436      -2.35324681
O        0.74722446      -1.87483802      -1.37939883
C        0.98017706      -0.77298252       1.01592133
N        0.77610347      -1.50012816       1.95192558
C        0.06654909       2.19952289       1.20614818
H       -1.02551448       2.21526012       1.22795080
H        0.43443240       1.76328529       2.13861298
H        0.42042738       3.23469841       1.16535706
