17
Properties=species:S:1:pos:R:3 Coordinates=T from=T ORCA-job=T run=T Energy:=T 52.1956432=T pbc="F F F"
C        0.80694569      -0.24317144       0.12091401
H        1.81897781       1.63161671      -0.15235313
Cl      -4.19376542       0.55505587      -1.21921554
Cl       4.60370075       2.28248978       0.18162377
C        0.78653768       1.30573473       0.05339536
N        0.69188647      -0.92275806      -1.16727173
O        1.61448713      -0.75438792      -1.96561479
O       -0.34338447      -1.56597555      -1.37060992
C        0.23720411      -1.00051588       1.20936250
N       -0.11974305      -1.58772024       2.16991450
C        0.33529307       1.85966206       1.39857450
H       -0.69137321       1.56224720       1.62250448
H        1.00396137       1.56674755       2.20864761
H        0.38777168       2.94302645       1.32839989
N       -0.06370088       1.67383289      -1.05737801
H        0.23325918       2.52667883      -1.51092850
H       -1.04695792       1.70320702      -0.82622500
