19
Properties=species:S:1:pos:R:3 Coordinates=T from=T ORCA-job=T run=T Energy:=T 108.5973366=T pbc="F F F"
C       -0.03724458       0.01424547       0.04291076
H        1.64995235       1.22153306      -0.13155336
F       -1.44491558       0.07204570      -0.03653562
H        3.02452346       0.26998909       0.22674889
C        0.54825290       1.41788026       0.00745853
N        0.30097846      -0.79961515      -1.20894543
O        0.66160973      -0.21772869      -2.23184869
O        0.11362681      -2.01294348      -1.13641808
C        0.38117936      -0.77693328       1.24467300
H        1.48273952      -0.79866097       1.23888016
H        0.01594132      -0.23159660       2.11386359
H       -0.04255669      -1.77867891       1.22781952
C        0.36883608       2.12935674       1.35091538
H       -0.63928423       2.01338095       1.75795254
H        1.09458029       1.73822916       2.06180953
H        0.54225573       3.20049700       1.22007057
N       -0.04029156       2.25232566      -1.02979948
H       -0.98017465       1.88300283      -1.11265726
H        0.42381130       2.04732115      -1.90459455
