17
Properties=species:S:1:pos:R:3 Coordinates=T from=T ORCA-job=T run=T Energy:=T 53.6130344=T pbc="F F F"
C        0.34051726      -0.05691021       0.01749366
H        1.60085643       1.60876051      -0.25712890
Br      -3.78344501      -0.35717690      -0.41138119
Cl       5.30090251       0.17262612       0.22170525
C        0.56253445       1.43262928       0.01608834
H       -0.02679822       1.84867321      -0.79949131
N        0.76254709      -0.73334032      -1.19298491
O        1.09428789      -0.04466232      -2.17047744
O        0.77540097      -1.97221332      -1.20412424
C        0.30203761      -0.85462108       1.29130297
H        1.31256246      -1.12318719       1.60499323
H       -0.16557527      -0.22110579       2.04169150
H       -0.27262285      -1.76285362       1.14323153
C        0.23439704       2.11322469       1.33833974
H       -0.78792439       1.91348341       1.67065022
H        0.92491252       1.82001821       2.12999251
H        0.31634952       3.19166532       1.20958903
