18
Properties=species:S:1:pos:R:3 Coordinates=T from=T ORCA-job=T run=T Energy:=T 172.5109593=T pbc="F F F"
C        1.03945219      -0.03266498       0.12397254
H        1.72351291       1.81312457      -0.46016642
Cl      -2.23539806      -0.27813402      -0.34157908
F        2.43552529      -0.14048250       0.32144029
C        0.77585545       1.45858529      -0.06003731
N        0.87667882      -0.74217693      -1.20481559
O        0.94741002      -0.05606516      -2.21688939
O        0.85300161      -1.96913714      -1.17963656
C        0.39614738      -0.79563909       1.24411034
H        1.00067444      -0.60327198       2.13195783
H       -0.66746861      -0.58934205       1.38252709
H        0.47765176      -1.85279923       1.01144240
C        0.49272871       2.14145200       1.27518791
H       -0.51733925       1.88994133       1.62059337
H        1.23516723       1.83235530       2.01514257
H        0.59069413       3.22753197       1.15730852
C       -0.23009868       1.85635073      -1.04336963
N       -0.95342535       2.29754189      -1.85663888
