16
Properties=species:S:1:pos:R:3 Coordinates=T from=T ORCA-job=T run=T Energy:=T 52.4167572=T pbc="F F F"
C        0.04897684      -0.06972643       0.06465794
H        1.70498173       1.18586064      -0.17414344
F       -1.34222115      -0.04406412       0.14535797
Cl       3.74156930       0.09651961       0.57310388
C        0.62247958       1.31125293      -0.15776764
H        0.37544383       1.83580694       0.76697416
N        0.22260970      -0.98626521      -1.18145828
O        0.10655545      -0.47885976      -2.28961418
O        0.32179388      -2.18911760      -0.95269886
N        0.58296456      -0.65435029       1.20610819
H        1.60145267      -0.54936066       1.19090565
H        0.32773820      -1.62813447       1.27775288
C        0.12945902       2.11196976      -1.35078518
H        0.65193231       1.83934347      -2.26323444
H       -0.94507981       1.99918708      -1.49357618
H        0.34349388       3.16894811      -1.16763247
