13
Properties=species:S:1:pos:R:3 Coordinates=T from=T ORCA-job=T run=T Energy:=T 55.3340475=T pbc="F F F"
C        0.14131951       0.02070250       0.13489860
H        0.64117732       1.87597516       0.97646166
F       -1.23209127       0.11548158       0.36662136
Cl       3.83782431      -0.32305976       0.20644288
C        0.73421637       1.39266510      -0.00099228
H        0.20597664       1.96507244      -0.76489772
H        1.79329345       1.29246441      -0.24840271
N        0.11609086      -0.70159347      -1.25614621
O       -0.00645071      -0.01395511      -2.26377680
O        0.08718664      -1.92953174      -1.22657264
N        0.73424831      -0.76420059       1.11300632
H        1.75374311      -0.74285970       0.99675635
H        0.41189545      -1.72129083       1.05814120
