15
Properties=species:S:1:pos:R:3 Coordinates=T from=T ORCA-job=T run=T Energy:=T 32.6073625=T pbc="F F F"
C        0.33649787      -0.11865773      -0.02551728
H        2.29672650       0.94598333       0.46712663
Br      -3.50476694      -0.28519223       0.51316556
F        3.62741827       0.88579999       0.46424428
C        1.10006099       1.17090920       0.09496674
H        1.13157554       1.71124334      -0.85484866
N        0.35319083      -0.62224758      -1.42679730
O        0.55977751       0.18932790      -2.35779409
O        0.12052268      -1.82548655      -1.60465251
N        0.15701942      -1.09150127       0.93682765
H        0.62768443      -0.77251723       1.77944877
H        0.65055649      -1.91993165       0.60025953
N        0.37676225       2.06195745       1.04687026
O       -0.17846796       3.08150700       0.61095845
O        0.43370213       1.77239603       2.24759197
