14
Properties=species:S:1:pos:R:3 Coordinates=T from=T ORCA-job=T run=T Energy:=T 582.8404458=T pbc="F F F"
C        1.08058742      -0.13756677       0.02023264
H        1.96947258       1.65442204      -0.50209201
Br      -2.56528293       0.11465179       0.24794940
F        2.46665991      -0.41413057       0.22592005
C        0.96720235       1.37986289      -0.20031629
H        0.80151359       1.82316540       0.77607157
N        0.91018963      -0.90223309      -1.28304093
O        1.17727503      -0.28643424      -2.31505086
O        0.73628124      -2.11730097      -1.20084645
N        0.35019781      -0.68909697       1.06845407
H        0.90123148      -0.55594235       1.89907355
H        0.35188924      -1.68503016       0.88623773
C        0.03426890       2.10009388      -1.09312407
N       -0.68744624       2.85501913      -1.65002840
