15
Properties=species:S:1:pos:R:3 Coordinates=T from=T ORCA-job=T run=T Energy:=T 79.8005993=T pbc="F F F"
C       -0.07333561      -0.20177918      -0.54000846
H        0.67247214       1.07096339      -2.18640771
F       -1.32139329      -0.39382116      -1.12100298
H        3.43758981       0.99052770       1.01581187
C        0.48208479       1.05450440      -1.11753237
H        3.15675871       0.93143398       0.87270687
N        0.78261211      -1.33463061      -1.11985311
O        1.31597372      -1.15791357      -2.21730228
O        0.77968915      -2.39675883      -0.48848097
N       -0.18729855      -0.21876934       0.83394919
H        0.58081791       0.27647557       1.28502909
H       -0.21317680      -1.17778646       1.15043799
N       -0.05239055       2.27472157      -0.61331495
O       -0.51642699       2.34037862       0.53280350
O        0.01988345       3.23931391      -1.38735566
