16
Properties=species:S:1:pos:R:3 Coordinates=T from=T ORCA-job=T run=T Energy:=T 235.9587646=T pbc="F F F"
C        0.04612763      -0.03383356      -0.13781913
H        1.41495361       1.44025034      -0.85075190
Cl      -1.62212968      -0.34454866      -0.81602194
F        2.58275814       0.20819827       1.12705646
C        0.49708904       1.44912514      -0.26667728
N        0.93840237      -0.85538737      -1.12907013
O        1.26823632      -0.32322950      -2.18290817
O        1.18691411      -2.01347422      -0.81857087
N        0.12842892      -0.51588621       1.16153174
H        1.12511932      -0.26403103       1.41347469
H        0.05382352      -1.52556145       1.13146041
N        0.82649152       2.09748169       0.99782561
H        1.70771580       1.59250388       1.22065691
H        0.16111054       1.76089449       1.68521454
C       -0.45972048       2.28590721      -0.99010366
N       -1.15089069       3.07471099      -1.51529729
