17
Properties=species:S:1:pos:R:3 Coordinates=T from=T ORCA-job=T run=T Energy:=T 80.0434905=T pbc="F F F"
C        0.17814155      -0.00474808       0.01483868
H        1.54228372       1.64654900      -0.21304797
F       -1.21829365      -0.12868005      -0.01780829
F        3.10746348      -0.66478560       0.78165563
C        0.47727686       1.46978566      -0.12388623
N        0.53661476      -0.71494423      -1.32904671
O        1.15220959      -0.13126486      -2.21247919
O        0.17713791      -1.88738172      -1.38680267
N        0.74986553      -0.59645362       1.08155687
H        1.93089912      -0.60634234       0.87085687
H        0.33158261      -1.50179286       1.26937011
N        0.08808038       2.03415419       1.25331995
O        0.99493850       2.51307819       1.93274474
O       -1.09892617       2.03762087       1.56272886
N       -0.22376209       2.02273725      -1.22115258
H       -0.01292735       3.01111724      -1.32564250
H       -1.21802474       1.87211095      -1.11280558
