13
Properties=species:S:1:pos:R:3 Coordinates=T from=T ORCA-job=T run=T Energy:=T 57.8103977=T pbc="F F F"
C        0.31356103      -0.04048211      -0.18222704
H        1.58808973       1.61333716      -0.29698424
Br      -1.49425096      -0.57853559       0.47303077
Br       3.27573755      -0.64786848       1.47486988
C        0.50653224       1.48269541      -0.17748806
H        1.05760323      -0.47794625       0.49439889
C        0.43901981      -0.56948498      -1.53245276
N        0.50161515      -1.04516909      -2.60431601
C        0.18723893       2.05457739       1.14255726
N       -0.07948860       2.61050377       2.14662118
N       -0.14429799       2.13760362      -1.28585826
H        0.08676597       3.12619655      -1.26342142
H       -1.14674609       2.02941261      -1.22696019
