14
Properties=species:S:1:pos:R:3 Coordinates=T from=T ORCA-job=T run=T Energy:=T 93.6834149=T pbc="F F F"
C        0.84512367       0.06983846      -0.11819763
H        1.76877013       1.95779007      -0.47216279
Br      -2.60037068      -0.52696658       0.72015159
Cl       2.13815879      -0.48337540       1.05486274
C        0.77158603       1.60096336      -0.18195920
H       -0.10994601      -0.34260876       0.23186120
C        1.18819059      -0.49235642      -1.42165078
N        1.55754533      -0.96246163      -2.43257122
N        0.39834917       2.12536129       1.14189000
H        0.81563427       3.04964964       1.23732987
H        0.84510678       1.55086864       1.84812356
N       -0.16146728       1.96224293      -1.22003632
H       -0.23857799       2.97014866      -1.22434888
H       -1.07183281       1.58513574      -0.98683214
