13
Properties=species:S:1:pos:R:3 Coordinates=T from=T ORCA-job=T run=T Energy:=T 105.1415797=T pbc="F F F"
C        0.18244987      -0.08860044      -0.21768725
H        1.58813518       1.46786348      -0.41667586
Cl      -1.51822561      -0.39506733       0.33432490
Br       3.26007243       0.26394232       1.90890046
C        0.51418424       1.41906060      -0.19474859
H        0.85576229      -0.55981738       0.50495777
C        0.38199685      -0.66815453      -1.54403818
N        0.47164365      -1.12842569      -2.62046825
N        0.23060714       1.94066413       1.14101665
H        0.40650657       2.94015172       1.13951752
H        0.93860668       1.50891141       1.73112495
C       -0.18804516       2.12469820      -1.26527606
N       -0.68945414       2.69254351      -2.15915805
