15
Properties=species:S:1:pos:R:3 Coordinates=T from=T ORCA-job=T run=T Energy:=T 82.8601576=T pbc="F F F"
C        0.21838102      -0.05616278      -0.19994073
H        1.52607180       1.57697626      -0.39271652
F       -1.12326561      -0.36477138       0.10276244
Cl       3.05776496      -0.21939351       1.76171486
C        0.46185657       1.44691654      -0.18690373
H        0.86943212      -0.52289294       0.54411936
C        0.49816124      -0.59536537      -1.53656024
N        0.68894442      -1.07131643      -2.59140587
C        0.18475985       2.04184174       1.20102204
H       -0.86676055       1.92802480       1.48229337
H        0.82356288       1.55192676       1.94029029
H        0.43086929       3.10537281       1.17187049
N       -0.30368926       2.04852997      -1.27016527
H       -0.09467931       3.04268528      -1.28042313
H       -1.29082941       1.94987824      -1.06108734
