13
Properties=species:S:1:pos:R:3 Coordinates=T from=T ORCA-job=T run=T Energy:=T 32.1752406=T pbc="F F F"
C        1.15803195      -0.15632328      -0.39272986
H        0.89682649       1.60817949       0.74178517
Cl      -2.06235249       1.16883866       2.06487025
Cl       2.91270781       0.17464481      -0.78986964
C        0.41643888       1.14416139      -0.12289092
H        1.18783142      -0.74551174       0.52335854
H       -0.59362739       0.88468978       0.22019121
C        0.60326988      -0.96913545      -1.47859813
N        0.18379562      -1.63295224      -2.35307365
C        0.35017028       2.12300811      -1.28504617
H        1.33750863       2.46315303      -1.60388202
H       -0.18513803       1.70446424      -2.14027459
H       -0.21374305       2.99018321      -0.94949019
