14
Properties=species:S:1:pos:R:3 Coordinates=T from=T ORCA-job=T run=T Energy:=T 98.8591431=T pbc="F F F"
C        0.03440838      -0.08480652      -0.08980841
H        1.62586715       1.24924649       0.01844460
Cl      -1.76069279      -0.12667114       0.07835611
Cl       3.43802995       0.46908025       0.34705238
C        0.52790167       1.34410274      -0.08370091
H        0.47535134      -0.61284313       0.75081554
C        0.39651382      -0.75140916      -1.33609234
N        0.60337428      -1.38995764      -2.29944892
N        0.07766454       1.97290882       1.22701212
O       -0.32329237       3.13382944       1.19241407
O        0.22922619       1.30730914       2.24885160
N        0.15516768       2.06757686      -1.23289747
H        0.51805620       3.00616849      -1.15869793
H       -0.85082604       2.10596536      -1.31950044
