12
Properties=species:S:1:pos:R:3 Coordinates=T from=T ORCA-job=T run=T Energy:=T 33.4877678=T pbc="F F F"
C        0.62178178       0.07563076      -0.29209401
H        1.30814344       1.98039185      -0.86936053
Br      -0.89979040      -0.78274270       0.80392946
F        0.90102930      -0.02720242       2.31868147
C        0.46428945       1.58851653      -0.28949001
H        1.46872221      -0.21111492       0.33157014
H       -0.45239692       1.83387939      -0.83950008
C        0.64623305      -0.53363458      -1.61198065
N        0.65875522      -1.09353485      -2.64627095
N        0.46934727       2.15037949       1.05115010
H        1.35259854       2.62234013       1.19751304
H        0.49165707       1.31387132       1.68308204
