15
Properties=species:S:1:pos:R:3 Coordinates=T from=T ORCA-job=T run=T Energy:=T 61.8699065=T pbc="F F F"
C        0.61153827       0.00961627      -0.29016497
H        1.68688822       1.75753643      -0.73570143
Br      -1.22003986      -0.55981865       0.49177777
F        0.99816115      -0.10468108       2.26988631
C        0.68473694       1.53369801      -0.34045921
H        1.21551711      -0.35608457       0.55661800
C        0.82937458      -0.67721477      -1.54389652
N        0.99893788      -1.26763964      -2.54837293
N        0.53132719       2.09127926       1.00693598
H        1.31752316       2.71963856       1.13719490
H        0.66871050       1.28787071       1.67399973
C       -0.32524291       2.16873023      -1.28436006
H       -0.31113484       1.69082675      -2.26668677
H       -1.32302031       2.10723481      -0.85333573
H       -0.05839709       3.22033769      -1.41810507
