15
Properties=species:S:1:pos:R:3 Coordinates=T from=T ORCA-job=T run=T Energy:=T 76.9882116=T pbc="F F F"
C        0.62460679      -0.02362539      -0.14478185
H        1.74704661       1.77948185      -0.49227377
F       -1.46230680      -0.48875603       1.15308408
H        1.23609289      -0.29801452       0.73186073
C        0.71304583       1.48996093      -0.20654584
H       -0.63958021      -0.36408292       0.44712808
C        1.11487007      -0.74472152      -1.30204649
N        1.60926472      -1.32126849      -2.20479454
C        0.35048339       2.07560737       1.14842891
H       -0.61181121       1.65478968       1.47338822
H        1.10888915       1.74448015       1.87238119
H        0.32842200       3.16587846       1.09269675
N       -0.10852738       2.07015735      -1.32294580
O       -0.67560101       3.15283205      -1.15280801
O       -0.06879484       1.48386104      -2.41036166
