14
Properties=species:S:1:pos:R:3 Coordinates=T from=T ORCA-job=T run=T Energy:=T 86.7107988=T pbc="F F F"
C        0.89788190       0.08362854      -0.13993511
H        1.68187905       1.99385586      -0.58470501
Cl      -2.45054350      -0.02148361       0.65328076
Br       2.37514620      -0.35611363       1.12304784
C        0.72138349       1.60407075      -0.22378954
H       -0.01410424      -0.37371404       0.25290226
C        1.26092011      -0.48895932      -1.42784863
N        1.63423184      -0.98395832      -2.42474141
N        0.42794277       2.17216474       1.09491388
H        1.14401540       2.85194171       1.33159137
H        0.46017067       1.43620355       1.78533053
N       -0.32094684       1.85778111      -1.18172671
H       -0.50909539       2.85591726      -1.19119176
H       -1.17383145       1.40691539      -0.84260846
