15
Properties=species:S:1:pos:R:3 Coordinates=T from=T ORCA-job=T run=T Energy:=T 194.1022897=T pbc="F F F"
C        0.93279785      -0.03068498      -0.03778110
H        1.76602302       1.93975740       0.13684773
F       -1.39035632       0.27096332       0.02930545
Cl       2.74394005      -0.41567193      -0.00398200
C        0.77048256       1.50406072      -0.04707337
H        0.56212853      -0.43759911       0.89019447
C        0.35424788      -0.74961117      -1.17407655
N        0.09868649      -1.42113351      -2.10381383
N       -0.02135717       1.89308967       1.17904406
O       -0.74675137       2.87955556       1.09398439
O        0.20561529       1.29551464       2.23042326
C        0.13282680       2.07526057      -1.30438254
H        0.69577862       1.76033747      -2.18023937
H       -0.87564746       1.67116898      -1.34255289
H        0.13168523       3.16486237      -1.26343771
