15
Properties=species:S:1:pos:R:3 Coordinates=T from=T ORCA-job=T run=T Energy:=T 82.2292668=T pbc="F F F"
C        0.25959176      -0.11096124      -0.10146848
H        1.60515112       1.40670519      -0.10708579
Cl      -1.43684121      -0.62739505       0.36962772
F        2.78782986       0.50934690       0.65053128
C        0.49275257       1.40304328      -0.09576582
H        0.94775324      -0.52583685       0.62798055
C        0.52223393      -0.70500005      -1.40847399
N        0.71364703      -1.25935283      -2.42743240
C        0.03014940       2.01002769       1.23009205
H       -1.05234084       1.91709850       1.35175403
H        0.52029361       1.51695932       2.07497532
H        0.30534559       3.06717067       1.24598358
N       -0.03836048       2.05181740      -1.28063789
H        0.40189359       2.96756815      -1.32354729
H       -1.03671919       2.20766892      -1.15682289
