14
Properties=species:S:1:pos:R:3 Coordinates=T from=T ORCA-job=T run=T Energy:=T 83.7694203=T pbc="F F F"
C        0.21495952      -0.08952988      -0.02541548
H        1.68145575       1.31706223      -0.14169409
Cl      -1.58882675      -0.33831639       0.09481592
F        2.68586943       0.03024609       0.02542131
C        0.56462631       1.40392457      -0.09932244
H        0.65284144      -0.47564970       0.88835370
C        0.71736999      -0.85601896      -1.16524060
N        0.97851220      -1.53943500      -2.08559839
C        0.17189295       2.02604413       1.15955187
N       -0.14477068       2.52930478       2.17472603
C       -0.03742455       2.17399965      -1.27162934
H        0.19509018       1.68295578      -2.22080250
H       -1.12202545       2.25848510      -1.16603567
H        0.37830965       3.18560760      -1.29717032
