13
Properties=species:S:1:pos:R:3 Coordinates=T from=T ORCA-job=T run=T Energy:=T 207.9719336=T pbc="F F F"
C        1.03960609       0.02738254      -0.04164770
H        0.70077523       1.24725003       1.61783765
F       -0.96449353      -0.13601689       1.00016041
F        2.30601156       0.01501842      -0.64833136
C        0.76580446       1.39519982       0.55249952
H        1.65689680       1.98943473       0.32424449
C        0.09113970      -0.50297052      -0.99725334
N       -0.48926737      -0.90458658      -1.93621515
N        1.24073730      -0.97177717       1.08207867
O        1.74513648      -0.51832298       2.10094846
O        1.06279944      -2.14961845       0.81908980
C       -0.45274337       2.07965690       0.12438099
N       -1.35488279       2.77172014      -0.17468243
