13
Properties=species:S:1:pos:R:3 Coordinates=T from=T ORCA-job=T run=T Energy:=T 172.9966480=T pbc="F F F"
C        0.05947601      -0.11279357       0.14515343
H        0.46411054       1.89782873       0.81889486
F       -1.16851286      -0.39267430       0.82696113
Cl       2.96125169       0.22138697      -0.77427952
C        0.03771050       1.41051053      -0.04145528
H       -1.01201868       1.68657744      -0.14192062
C        0.02741211      -0.91333528      -1.08457908
N       -0.08540759      -1.61068797      -2.02745791
C        1.07981859      -0.61490907       1.08379724
N        1.72491115      -1.08934294       1.94783349
N        0.73825296       2.02738845      -1.19306895
O        1.30152053       3.08604738      -0.93929258
O        0.61925504       1.53267364      -2.30725621
