14
Properties=species:S:1:pos:R:3 Coordinates=T from=T ORCA-job=T run=T Energy:=T 92.7553825=T pbc="F F F"
C       -0.12396619      -0.15524916      -0.12887778
H        1.61899559       1.12674059      -0.10574188
F       -1.52752298       0.03525734      -0.10171448
Cl       4.39484740       1.86882937       0.91584136
C        0.53642864       1.21724816      -0.03402611
H        0.19268274       1.76678427      -0.91623665
C        0.17936390      -0.88140037      -1.37577521
N        0.22039216      -1.46333776      -2.39684246
C        0.18759676      -1.00058630       1.04043400
N        0.35405214      -1.61715317       2.02771414
C        0.14618722       1.93513597       1.25970590
H       -0.89689286       2.24079813       1.21838904
H        0.30774367       1.31031423       2.13991359
H        0.77446180       2.81443870       1.36246654
