16
Properties=species:S:1:pos:R:3 Coordinates=T from=T ORCA-job=T run=T Energy:=T 196.3384169=T pbc="F F F"
C        0.16044907      -0.18108182      -0.23242489
H        1.22935606       1.47652964      -1.12898978
Cl      -1.55118271      -0.54561388      -0.85449989
F        2.73635379       0.48549617       1.92203879
C        0.50577428       1.35343752      -0.31001742
C        1.01179280      -0.92150413      -1.17979867
N        1.60561519      -1.51872423      -1.99884268
C        0.25395528      -0.70833514       1.18115789
H        1.26651382      -0.48950396       1.56999234
H       -0.47317598      -0.17398878       1.79869263
H        0.02325514      -1.77465643       1.19535877
N        0.92392316       1.93847420       0.93371602
H        1.18055244       2.90220264       0.73196598
H        1.77277771       1.41221886       1.35615798
C       -0.67268886       2.14542724      -0.61157429
N       -1.54463120       2.92705210      -0.69863277
