16
Properties=species:S:1:pos:R:3 Coordinates=T from=T ORCA-job=T run=T Energy:=T 195.2313715=T pbc="F F F"
C        0.06072897      -0.13483661       0.01344866
H        1.58485781       1.35204783       0.14398309
F       -1.35611540      -0.09638286       0.05327243
Cl       3.86210970       1.04956896       0.81727520
C        0.49280886       1.33716022       0.01451249
C        0.35902203      -0.76051121      -1.29054867
N        0.44529886      -1.26696406      -2.34436143
C        0.59297967      -0.92568848       1.19151788
H        0.30600137      -1.97370087       1.08996875
H        1.68420803      -0.85704283       1.23942049
H        0.16889429      -0.53194962       2.12223274
C       -0.12954617       2.00610449       1.18216346
N       -0.65616672       2.57349888       2.06654682
N        0.11373007       1.95706940      -1.25661918
H        0.39137992       2.93644377      -1.26817576
H       -0.89547127       1.88137297      -1.39182700
