14
Properties=species:S:1:pos:R:3 Coordinates=T from=T ORCA-job=T run=T Energy:=T 36.8447591=T pbc="F F F"
C        1.06617880      -0.11408435      -0.14772300
H        1.17234023       1.81563196       0.73878560
F       -1.55028917       1.06921662       1.17130356
F        2.43143950      -0.09566077      -0.51850399
C        0.58941170       1.29439093      -0.02721512
H       -0.67956540       1.14296047       0.50007182
C        0.40321594      -0.80604988      -1.26903978
N       -0.01565922      -1.37817377      -2.20723239
C        0.89604430      -0.87194946       1.15772011
H        1.49725848      -0.37227519       1.92448883
H       -0.15579105      -0.80803762       1.44992034
H        1.24933786      -1.90131376       1.04843753
C        0.53882368       1.97142799      -1.29062206
N        0.51307435       2.50534683      -2.33796146
