18
Properties=species:S:1:pos:R:3 Coordinates=T from=T ORCA-job=T run=T Energy:=T 64.9227911=T pbc="F F F"
C        1.28110980       0.02816060       0.17300624
H        1.68858672       1.80211852      -0.89603288
Br      -3.37697450      -0.30821500      -1.20199463
F        2.49867615      -0.03917246       0.91323833
C        0.97198027       1.50234833      -0.12644740
C        1.59882056      -0.71395080      -1.05837858
N        1.99678132      -1.35280262      -1.96170619
C        0.20925166      -0.63704067       0.99758179
H        0.15180039      -0.10729717       1.94652227
H       -0.75164949      -0.57698653       0.48036617
H        0.48313050      -1.67529826       1.18850696
N        1.16015112       2.26768825       1.11772332
H        1.27962218       3.24285897       0.85435477
H        2.04081562       1.95642704       1.52067029
C       -0.45462946       1.73161992      -0.60337485
H       -0.84790637       0.94570857      -1.25086778
H       -1.12970618       1.78190029       0.24927600
H       -0.48534031       2.67824303      -1.13861383
