15
Properties=species:S:1:pos:R:3 Coordinates=T from=T ORCA-job=T run=T Energy:=T 116.9517299=T pbc="F F F"
C        0.11859961      -0.11939198       0.03543202
H        2.03889864       0.99032781       0.38716077
Br      -1.90220791       0.02094456       0.12988873
F        3.07828336       0.97269584       0.75931339
C        0.71625325       1.25842073       0.08515404
H        0.62579602       1.80921246      -0.85427058
C        0.30969775      -0.68974797      -1.30934225
N        0.32962985      -1.20324773      -2.37020335
C        0.61530065      -1.04399895       1.15069601
H        1.71158491      -1.06504216       1.11426998
H        0.32703742      -0.58808728       2.09732057
H        0.16515640      -2.04269503       1.09319133
N        0.10667537       2.14296033       1.08738429
O       -0.19184995       3.26770079       0.67403237
O       -0.00348538       1.78241857       2.26020269
