16
Properties=species:S:1:pos:R:3 Coordinates=T from=T ORCA-job=T run=T Energy:=T 203.3409015=T pbc="F F F"
C        0.07522827      -0.09915943       0.12587339
H        1.64069722       1.22992334       0.05745831
F       -1.32858653      -0.12984374       0.25261861
F        2.80284044      -0.03225076      -0.03679964
C        0.53168765       1.35790956       0.02251848
C        0.34824245      -0.81682193      -1.15576196
N        0.46514710      -1.41881415      -2.15813577
N        0.67691300      -0.69925716       1.27102758
H        1.69662257      -0.66088584       1.01567853
H        0.35186816      -1.65816213       1.30948563
C        0.01967919       2.06700793       1.18473457
N       -0.39539431       2.69271786       2.09071393
C        0.10694448       2.04283002      -1.28345823
H        0.72309811       1.66751237      -2.10566536
H       -0.94296608       1.83228763      -1.50828335
H        0.24875827       3.12644644      -1.21267471
