14
Properties=species:S:1:pos:R:3 Coordinates=T from=T ORCA-job=T run=T Energy:=T 77.4139861=T pbc="F F F"
C        0.18153669      -0.14000085       0.04334113
H        1.76940726       1.21478473       0.38780817
Cl      -1.65897266      -0.12103318       0.27950233
F        3.02005276      -0.20764666       1.06622307
C        0.71420132       1.32766153       0.07776817
H        0.57288379       1.83768793      -0.87147942
C        0.28985213      -0.63555934      -1.35362539
N        0.27423552      -1.09302329      -2.43736010
N        0.76230952      -0.96623138       1.00249500
H        1.91165676      -0.71612435       1.02777262
H        0.47481424      -1.93774397       0.90184074
N       -0.01748993       2.19679107       1.05522347
O       -0.60788519       3.17003992       0.58501449
O        0.02072779       1.91289783       2.24675572
