15
Properties=species:S:1:pos:R:3 Coordinates=T from=T ORCA-job=T run=T Energy:=T 150.6770977=T pbc="F F F"
C        0.09834970      -0.11202548      -0.05898730
H        1.67456050       1.33730279      -0.13698885
F       -1.29629253      -0.14924135      -0.01408137
Cl       3.72411379       0.31137982       0.18448330
C        0.56378129       1.34472558      -0.07513233
C        0.43230148      -0.90993319      -1.26415522
N        0.55234080      -1.67529974      -2.14921327
N        0.63301851      -0.67678501       1.12588404
H        1.01429279      -1.58498832       0.93766150
H       -0.07581085      -0.73498835       1.84018117
C        0.18196632       1.97883956       1.17654781
N       -0.04592603       2.44796988       2.22831094
N       -0.00941045       2.11205729      -1.24502346
O       -0.89061598       2.94193687      -1.02227656
O        0.48647066       1.86194964      -2.34072041
