14
Properties=species:S:1:pos:R:3 Coordinates=T from=T ORCA-job=T run=T Energy:=T 100.5226718=T pbc="F F F"
C        0.10356302      -0.10435257      -0.02059835
H        1.73655927       1.16674422      -0.11126128
Cl      -1.73360006      -0.06662156       0.11205142
F        2.96869267       0.09835358       0.43031640
C        0.63012509       1.31670675      -0.07329562
H        0.33821933       1.83714772       0.83393910
C        0.35249088      -0.90848451      -1.23940266
N        0.48640453      -1.66428065      -2.12999423
N        0.64494163      -0.68426868       1.16691583
H        1.69337680      -0.51090314       1.03895437
H        0.45640764      -1.68050608       1.16952791
N        0.12265282       2.11159207      -1.20769035
O       -0.12048063       3.30320818      -0.99747815
O        0.00986699       1.55485467      -2.29982438
