17
Properties=species:S:1:pos:R:3 Coordinates=T from=T ORCA-job=T run=T Energy:=T 71.4020644=T pbc="F F F"
C        0.35201547      -0.08551472       0.11852011
H        1.66445752       1.55396665       0.17662245
Cl      -1.46351247      -0.42065614      -0.12029724
H        2.16887612      -0.54730207      -0.92882409
C        0.58098726       1.42654040       0.09477459
C        1.05982550      -0.67695661      -1.09427236
N        0.66939016      -1.09619040      -2.17657236
N        0.69366661      -0.69346288       1.36367260
H        1.66251094      -0.47825373       1.60224046
H        0.60782065      -1.69624628       1.24512257
C       -0.05340699       2.11114823       1.29895878
H       -1.14156657       2.18496265       1.20582250
H        0.19244354       1.57471756       2.21642747
H        0.35007099       3.12169296       1.38381618
N        0.19864653       1.98353882      -1.20336342
H        0.17594117       2.99699349      -1.13194577
H       -0.72435641       1.64741208      -1.46419246
