14
Properties=species:S:1:pos:R:3 Coordinates=T from=T ORCA-job=T run=T Energy:=T 80.8149606=T pbc="F F F"
C        0.78084129      -0.07416917      -0.23394193
H        0.42109952       1.86954406      -1.18019779
Br      -3.22951918      -0.38196521      -0.18619577
F        2.03052925       0.26615479       2.53579879
C        0.38211634       1.41331343      -0.18431066
H       -0.67696552       1.40485474       0.12738622
C        1.39657586      -0.55744179      -1.46161832
N        1.96588468      -0.93688408      -2.42170549
N        0.46455946      -0.81160053       0.88111564
H        1.08529832      -0.45028850       1.67554772
H        0.51037195      -1.81593895       0.77073714
N        1.22882408       2.16946618       0.73918800
H        1.80476853       1.52036365       1.30736650
H        0.58394545       2.52822136       1.43998995
