16
Properties=species:S:1:pos:R:3 Coordinates=T from=T ORCA-job=T run=T Energy:=T 90.6097998=T pbc="F F F"
C        0.05303857      -0.14112415       0.01187119
H        1.62722516       1.22309912      -0.11647964
Cl      -1.78294464      -0.19064339       0.26701145
H        3.20494076       0.04955528       0.76321155
C        0.52231107       1.31890877      -0.08565438
C        0.23936290      -0.86167265      -1.26602172
N        0.33910822      -1.48093966      -2.25952270
N        0.67395052      -0.72759084       1.14285621
H        1.72350999      -0.50398236       1.06777142
H        0.55491167      -1.73338973       1.12032298
C        0.18243096       1.98411444       1.16735921
N       -0.05549991       2.56385961       2.16029131
C        0.00414442       2.09931642      -1.28720374
H        0.34524592       1.62456288      -2.20959399
H       -1.08812841       2.17161045      -1.29385650
H        0.41394282       3.11082581      -1.24809265
