15
Properties=species:S:1:pos:R:3 Coordinates=T from=T ORCA-job=T run=T Energy:=T 124.9872581=T pbc="F F F"
C        0.23062034      -0.02132143       0.07861123
H        1.69856339       1.50903764       0.07880243
F       -1.16073803      -0.11237212      -0.16852482
H        2.06471613      -0.68320978      -0.83379093
C        0.60217024       1.47015058       0.09748517
C        0.96233002      -0.69990501      -1.08349898
N        0.61373580      -1.16228333      -2.16653418
N        0.45662050      -0.63528057       1.33596087
H        1.41191684      -0.46542951       1.63607790
H        0.32399671      -1.63244540       1.21929476
C        0.17294355       2.05725624       1.37598422
N       -0.13179680       2.58828885       2.37916494
N        0.12078643       2.30338312      -1.00142886
H       -0.88566391       2.39353498      -0.96230652
H        0.36393880       1.87211575      -1.89008722
