15
Properties=species:S:1:pos:R:3 Coordinates=T from=T ORCA-job=T run=T Energy:=T 224.0680466=T pbc="F F F"
C        0.21150511       0.10322085      -0.13032879
H        1.35758513       1.79740476      -0.95366771
F       -1.17028755      -0.14647450      -0.25428199
H        2.18566262      -2.03910322       0.44115625
C        0.48178149       1.61330355      -0.31064961
H        0.50544219      -0.22669575       0.86368385
C        0.99100652      -0.73252738      -1.09521328
H        0.74052184      -0.51454718      -2.12856229
H        2.04820762      -0.62942601      -0.90195338
H        0.78400749      -1.76059783      -0.83646806
C        0.65221475       2.33900644       0.94963484
N        0.88677588       2.87684886       1.96903476
N       -0.64895628       2.21712348      -1.12020012
O       -1.43082567       2.99435920      -0.58300035
O       -0.67113112       1.87774472      -2.29780414
