15
Properties=species:S:1:pos:R:3 Coordinates=T from=T ORCA-job=T run=T Energy:=T 59.7802567=T pbc="F F F"
C        0.33284631      -0.03667763      -0.20534919
H        1.49011738       1.70837051      -0.58233683
Br      -1.48327238      -0.51845836       0.42851436
Cl       3.04644752      -0.12991426       1.92270841
C        0.47256670       1.48569031      -0.22649300
H        1.00441384      -0.38979467       0.57618155
C        0.63798367      -0.71886297      -1.51569049
H       -0.05075586      -0.42765464      -2.30879859
H        1.65526261      -0.47549828      -1.82617314
H        0.58276272      -1.80245004      -1.39434034
N        0.28359959       2.03144665       1.12526434
H        0.53454480       3.01734610       1.09101688
H        0.95949447       1.55348313       1.71958732
C       -0.49116106       2.07165373      -1.16839536
N       -1.26171030       2.54059041      -1.92156591
