13
Properties=species:S:1:pos:R:3 Coordinates=T from=T ORCA-job=T run=T Energy:=T 122.6121147=T pbc="F F F"
C        1.08406839       0.01298933      -0.20673937
H        0.88272674       1.97014407       0.68533400
Cl      -1.74208320      -0.33837797       1.59034847
Br       3.04467788       0.18590693      -0.33326393
C        0.45485812       1.40370117      -0.14381993
H        0.87888962      -0.49417527       0.73383299
H       -0.60650688       1.26267062       0.08226952
C        0.58702976      -0.80410759      -1.37842449
H       -0.49859444      -0.88500313      -1.33916499
H        0.88428567      -0.35214515      -2.32034538
H        0.99871098      -1.80954071      -1.33939505
C        0.63689535       2.14164194      -1.38482779
N        0.78134200       2.73303576      -2.38888406
