17
Properties=species:S:1:pos:R:3 Coordinates=T from=T ORCA-job=T run=T Energy:=T 37.5991385=T pbc="F F F"
C        0.21955068      -0.07535902      -0.20375008
H        1.55319429       1.52130751      -0.55684152
Cl      -1.54572932      -0.33749110       0.20122556
Cl       3.20430313       0.44595895       1.93237324
C        0.50516838       1.42187644      -0.25852978
H        0.79786460      -0.44162939       0.64350302
C        0.60117781      -0.83883082      -1.44815176
H        0.00969685      -0.54540620      -2.31637720
H        1.65302433      -0.66099426      -1.66872873
H        0.45829225      -1.90374046      -1.26881353
N        0.37240458       1.93333351       1.11224472
H        0.76634047       2.87260117       1.10817753
H        1.03675864       1.38495384       1.65598060
C       -0.39751181       2.20167362      -1.19968240
H       -0.37301887       1.80542480      -2.21972804
H       -1.41364938       2.17577199      -0.80756875
H       -0.06373664       3.23874942      -1.23707289
