15
Properties=species:S:1:pos:R:3 Coordinates=T from=T ORCA-job=T run=T Energy:=T 8.5692152=T pbc="F F F"
C        0.19329223      -0.11846979      -0.03684840
H        1.51479414       1.48819505      -0.10017044
Cl      -1.57626868      -0.50405437       0.22899680
Cl       3.81604396       0.55127530      -0.20409281
C        0.42910370       1.37928787       0.00249661
H        0.72432894      -0.57987796       0.79649319
H       -0.04930916       1.83392538      -0.87405344
C        0.63715953      -0.76906078      -1.32528468
H        0.11677262      -0.31663485      -2.17175039
H        1.71335725      -0.61371187      -1.41839181
H        0.40840568      -1.83421737      -1.29148505
C       -0.04791073       2.04169249       1.28908100
H       -1.12211807       1.89671871       1.42468475
H        0.46205553       1.60251319       2.15073928
H        0.16939306       3.11413900       1.27774541
