14
Properties=species:S:1:pos:R:3 Coordinates=T from=T ORCA-job=T run=T Energy:=T 13.8423355=T pbc="F F F"
C        0.15847313      -0.14430353      -0.00962903
H        1.77884759       1.26827532      -0.11547977
Cl      -1.62871221      -0.44294261       0.20365463
F        2.92641053       0.94720943      -0.31452141
C        0.46953844       1.30578188       0.00397681
H        0.62832248      -0.61514967       0.85339625
H        0.00887819       1.86342324      -0.81484372
C        0.64854949      -0.80284303      -1.29003159
H        0.12413633      -0.39470506      -2.16048740
H        1.71543829      -0.56498200      -1.34365932
H        0.46680255      -1.88063400      -1.25400763
N        0.13045117       1.98104088       1.24764702
O       -0.19226206       3.17473039       1.17586323
O        0.23046607       1.35533876       2.30862194
