16
Properties=species:S:1:pos:R:3 Coordinates=T from=T ORCA-job=T run=T Energy:=T 46.9892663=T pbc="F F F"
C        0.99677333       0.10598451      -0.04651562
H        1.67205883       2.06567495      -0.56506262
Cl      -2.68944519      -0.07596525      -0.17638579
Cl       2.65637364      -0.06744939       0.69752125
C        0.74682470       1.60297015      -0.20467185
H        0.28514128      -0.26253925       0.69082015
C        0.94023544      -0.72824998      -1.30017040
H       -0.08982795      -0.71076913      -1.65990286
H        1.61256835      -0.33474656      -2.06375044
H        1.23601990      -1.75064935      -1.05820743
N        0.42982994       2.10496480       1.13741307
H        0.73380355       3.07036916       1.22246578
H        0.96912937       1.57090023       1.80618143
N       -0.31426937       1.89089733      -1.13900161
H       -0.67767988       2.79563483      -0.86884191
H       -1.07765595       1.22765294      -0.98231115
