15
Properties=species:S:1:pos:R:3 Coordinates=T from=T ORCA-job=T run=T Energy:=T 90.8700847=T pbc="F F F"
C        0.90433215       0.05466887      -0.06320357
H        1.70752462       1.99930498      -0.56518373
F       -1.80627517      -0.09509006      -0.42125770
Br       2.57846665      -0.35016067       0.86707505
C        0.76108313       1.58072676      -0.18778785
H        0.09535558      -0.30112128       0.56351970
C        0.85386245      -0.67947137      -1.38911432
H       -0.16310225      -0.49839848      -1.73629226
H        1.62159458      -0.33704337      -2.08874919
H        0.98879002      -1.74350708      -1.19507965
C        0.60370926       2.11394500       1.18475553
N        0.40824066       2.50196691       2.27678122
N       -0.33272402       1.88988312      -1.06643506
H       -0.67538393       2.82593349      -0.87159226
H       -1.09701374       1.16532316      -0.86484589
