15
Properties=species:S:1:pos:R:3 Coordinates=T from=T ORCA-job=T run=T Energy:=T 159.5702899=T pbc="F F F"
C        1.02802212       0.04721920      -0.01763039
H        1.69185649       2.00456182      -0.64077519
Br      -2.89465185      -0.26634806      -0.48243029
Cl       2.66748685      -0.20337522       0.68691014
C        0.80087021       1.55997108      -0.17457676
H        0.32656677      -0.37421757       0.71046636
C        0.92931544      -0.67757940      -1.34261873
H       -0.08839628      -0.51256045      -1.69291683
H        1.65705699      -0.27422084      -2.05339681
H        1.12361996      -1.74140043      -1.18915745
C        0.69796662       2.16693692       1.17060635
N        0.60381872       2.67265601       2.22778400
N       -0.33051816       1.80326143      -1.03798682
H       -0.67262759       2.74560356      -0.89489887
H       -1.10842628       1.17090195      -0.81488870
