18
Properties=species:S:1:pos:R:3 Coordinates=T from=T ORCA-job=T run=T Energy:=T 22.2344499=T pbc="F F F"
C        0.81157132       0.03829767       0.04043742
H        1.74972775       1.81788374      -0.58816758
Cl      -2.84776562      -1.02402404      -0.50178581
F        1.86590630      -0.27594752       0.94079439
C        0.77916616       1.55336866      -0.15687872
H       -0.12738155      -0.27084343       0.51310426
C        1.00442671      -0.72797349      -1.24939676
H        0.08304837      -0.66469783      -1.83160066
H        1.83869914      -0.31006743      -1.81709803
H        1.21242340      -1.78050069      -1.04596612
C        0.61475992       2.27812353       1.17275860
H       -0.35076015       2.02786985       1.61444431
H        1.40038604       1.98827582       1.86987789
H        0.65371318       3.35900118       1.02046690
C       -0.34164663       1.95194470      -1.10937428
H       -0.10135813       1.70990015      -2.14767411
H       -1.25766829       1.42043588      -0.82602085
H       -0.52920792       3.02631326      -1.05812085
