16
Properties=species:S:1:pos:R:3 Coordinates=T from=T ORCA-job=T run=T Energy:=T 47.9192841=T pbc="F F F"
C        0.15901293      -0.06008817      -0.11416789
H        1.55175525       1.52740402      -0.27199607
Cl      -1.61517891      -0.26793876       0.15855164
Br       3.56917907       0.03234796       0.57941262
C        0.46117832       1.42202745      -0.18129613
H        0.68063585      -0.45833796       0.74836509
C        0.59303562      -0.79191279      -1.36772466
H        0.09787695      -0.38070919      -2.24917489
H        1.67639852      -0.69264845      -1.46138503
H        0.32223504      -1.84650134      -1.27753089
N        0.20457402       2.01352146       1.20625269
O        0.00432849       3.22951531       1.25702776
O        0.33160162       1.28529132       2.18587132
N       -0.21771751       2.11841153      -1.21660900
H       -0.15473106       3.11392124      -1.05591978
H       -1.19191421       1.84639638      -1.26160680
