15
Properties=species:S:1:pos:R:3 Coordinates=T from=T ORCA-job=T run=T Energy:=T 29.2803135=T pbc="F F F"
C       -0.09596386      -0.16759144       0.04545171
H        3.41269993       0.97292816      -0.90588682
Cl      -1.89272272      -0.46164303       0.09600419
H        3.79921679       0.99024373      -0.94423380
C        0.19365680       1.30718517      -0.01429820
H        0.22110622       1.83417223       0.93549304
C        0.52564359      -0.95817483      -1.10956532
H        0.19845324      -0.51568694      -2.05253278
H        1.60895188      -0.86629992      -1.01807693
H        0.22428092      -2.00791313      -1.03145486
C        0.41353588      -0.68700228       1.32987983
N        0.80217267      -1.10499465       2.35664659
N       -0.28560006       2.15471485      -1.07803058
O       -0.31361963       3.36563659      -0.80246846
O       -0.66769164       1.66418546      -2.14626762
