15
Properties=species:S:1:pos:R:3 Coordinates=T from=T ORCA-job=T run=T Energy:=T 55.3978746=T pbc="F F F"
C        0.41767413       0.01463607      -0.08940354
H        1.22972804       1.96283423      -0.42133386
F       -0.85829029      -0.51644065       0.26098869
H        0.88656193      -1.15340318       1.62516047
C        0.28652794       1.52379658      -0.08384536
H       -0.50804776       1.77060569      -0.79077145
C        0.83497002      -0.57624242      -1.39878090
H        0.12249565      -0.30800835      -2.18012038
H        1.83843229      -0.24701469      -1.67314295
H        0.84460302      -1.65921334      -1.29600462
C        1.40548935      -0.40071273       0.98801828
N        2.54121010      -0.01771417       1.24535839
N       -0.04666381       2.05868002       1.23196126
H        0.80299915       2.05823890       1.78849260
H       -0.65343977       1.36743803       1.65461337
