15
Properties=species:S:1:pos:R:3 Coordinates=T from=T ORCA-job=T run=T Energy:=T 53.6325947=T pbc="F F F"
C        1.03054327      -0.09230366       0.10904339
H        0.94848288       1.85592099      -0.76815375
F       -1.73700376       0.88947292      -1.05062376
Br       3.03467812       0.10860670       0.36068960
C        0.42901906       1.27995353       0.01525401
H       -0.80045952       1.06084479      -0.38886421
C        0.76161868      -0.81725131      -1.21702845
H       -0.30538481      -0.68932149      -1.43370472
H        1.32254285      -0.30652281      -2.01015379
H        1.06544264      -1.86782227      -1.18742441
C        0.60365618      -0.83877957       1.29252307
N        0.36831275      -1.37843773       2.30899217
N        0.40241185       2.06934888       1.25392680
O       -0.53271565       2.84931822       1.46390574
O        1.41074547       2.00979279       1.97070833
