19
Properties=species:S:1:pos:R:3 Coordinates=T from=T ORCA-job=T run=T Energy:=T 203.1193554=T pbc="F F F"
C        0.50021513      -0.03577703       0.05315784
H        1.83870172       1.61347404      -0.13176428
Cl      -4.18963099      -1.08213735      -0.13065127
Cl       4.97255836       0.25709466      -1.12371544
C        0.75477455       1.46840901      -0.01288929
C        0.57819934      -0.86814680      -1.21969945
H       -0.21228502      -0.56635188      -1.91049931
H        1.55036639      -0.74726812      -1.70464096
H        0.44665295      -1.92500296      -0.98618821
C        0.55572072      -0.69912733       1.40616016
H        1.51664815      -0.51440833       1.88581674
H       -0.21357255      -0.28753883       2.06065711
H        0.41400612      -1.77347488       1.30472394
C        0.39747145       2.11305247       1.24765320
N        0.10481338       2.62044419       2.26950329
C        0.02301649       2.15116608      -1.18314016
H        0.38681555       1.74536189      -2.13381277
H       -1.06103986       1.99348245      -1.10322496
H        0.22478810       3.22810870      -1.13373618
