19
Properties=species:S:1:pos:R:3 Coordinates=T from=T ORCA-job=T run=T Energy:=T 82.4332545=T pbc="F F F"
C       -0.25975551      -0.19921620      -0.02279038
H        3.42544460       1.16185411      -0.24897078
Cl      -2.06486947      -0.49529945      -0.18471002
H        3.72373753       1.18909963      -0.27826927
C       -0.13127405       1.30562504       0.12049806
C        0.48960633      -0.80266205      -1.21035502
H        0.42502910      -1.89366383      -1.11666935
H        0.12906837      -0.48756349      -2.18914678
H        1.54081532      -0.53573374      -1.11031832
C        0.24226304      -0.89018880       1.26327719
H        1.33330586      -0.88908285       1.30578094
H       -0.09734497      -0.39757874       2.17289309
H       -0.08643918      -1.93532293       1.25321972
N        0.01998355       2.03219155       1.26717358
H        0.43974686       2.89554320       0.94137302
H        0.63743750       1.57223311       1.91321319
N       -0.06543588       2.16326145      -1.06864458
O        0.23252814       3.35769803      -0.85900850
O       -0.39123719       1.71091596      -2.17686580
