17
Properties=species:S:1:pos:R:3 Coordinates=T from=T ORCA-job=T run=T Energy:=T 31.2084239=T pbc="F F F"
C        0.51569565      -0.10445708       0.12801588
H        1.99554975       1.39537191       0.61612107
Cl      -4.16471850       0.39050143      -0.13142807
Cl       4.26044783       0.25749752      -0.19492163
C        0.96393716       1.34121271       0.22991236
H        0.91754522       1.81599899      -0.75059275
C        0.59941569      -0.69988502      -1.25973055
H        0.11513646      -1.68041047      -1.26056556
H        0.08878526      -0.05599851      -1.98021634
H        1.65398395      -0.79742464      -1.53257822
C        0.67088020      -1.05565393       1.28799275
H        1.70587416      -1.40049504       1.31734372
H        0.39869326      -0.57993384       2.22597925
H        0.02458162      -1.92399501       1.11962546
N        0.04954169       2.16991113       1.07063848
O       -0.22282598       3.29804503       0.64862323
O       -0.34983344       1.73180482       2.15134094
