17
Properties=species:S:1:pos:R:3 Coordinates=T from=T ORCA-job=T run=T Energy:=T 35.4832585=T pbc="F F F"
C        0.08460993      -0.04850312       0.00308653
H        1.71031859       1.26935519       0.00300881
Cl      -1.74872006       0.02882751       0.01644437
F        3.19778926      -0.22402235       0.00243785
C        0.60737273       1.38741047      -0.03500270
H        0.25249264       1.88969543       0.88015420
C        0.52728328      -0.79459952      -1.24112805
H        0.14557514      -1.82145348      -1.23692213
H        0.16780553      -0.26412247      -2.12446146
H        1.62767150      -0.79169436      -1.18908677
C        0.56586306      -0.75023528       1.25791050
H        1.66335337      -0.73560271       1.17549628
H        0.23501403      -0.22504557       2.15976390
H        0.17873469      -1.77461527       1.28518777
N        0.19734362       2.09695851      -1.25911803
H        0.59334028       3.02893236      -1.20895126
H       -0.81583760       2.19515466      -1.25296981
