18
Properties=species:S:1:pos:R:3 Coordinates=T from=T ORCA-job=T run=T Energy:=T 295.3265011=T pbc="F F F"
C        0.10649048      -0.05753457      -0.02211051
H        1.64714755       1.34302407       0.12287897
F       -1.31220897      -0.01889843      -0.09241411
H        3.15748743      -0.09635250       0.36681734
C        0.54716048       1.39802874       0.02117884
C        0.60192164      -0.69655678      -1.28920373
H        0.11820887      -1.69360926      -1.39703083
H        0.30915131      -0.06415782      -2.15129501
H        1.70002745      -0.79409064      -1.16732589
C        0.55686613      -0.80707610       1.21924184
H        1.01720181      -1.74602208       0.91960386
H        1.34634376      -0.27515436       1.75607905
H       -0.29462499      -0.99914314       1.86885940
C       -0.04454153       2.03997529       1.20497572
N       -0.52568377       2.55219841       2.14833644
N        0.16617969       2.06060824      -1.22814230
H        0.18710207       3.07909101      -1.09131372
H       -0.80212940       1.74930992      -1.42919537
