17
Properties=species:S:1:pos:R:3 Coordinates=T from=T ORCA-job=T run=T Energy:=T 58.1210460=T pbc="F F F"
C        1.23745917      -0.05805945      -0.06108733
H        1.98572231       1.34980705       1.36980634
Cl      -3.35588615      -2.16888226       1.19750027
H        2.26588888      -0.40369297      -0.22625612
C        1.43612474       1.36835744       0.42522424
H        2.00582534       1.97310986      -0.28360807
C        0.50997909      -0.17299068      -1.40490999
H       -0.53274823       0.13499435      -1.35141521
H        1.01662671       0.40704432      -2.18133245
H        0.53202311      -1.22238745      -1.72016167
C        0.65791607      -0.94213553       1.05006648
H        1.28425335      -0.88552469       1.94185502
H       -0.35911828      -0.68799575       1.33224455
H        0.66142040      -1.99042160       0.74542881
N        0.21092500       2.15761472       0.72233623
O       -0.89996589       1.63082674       0.61342368
O        0.38850440       3.32389591       1.10478524
