18
Properties=species:S:1:pos:R:3 Coordinates=T from=T ORCA-job=T run=T Energy:=T 257.7296046=T pbc="F F F"
C        0.04199797      -0.09939234      -0.10051921
H        1.62837612       1.29616554      -0.26047621
F       -1.36806480      -0.02835050      -0.15689612
Cl       3.79708145       0.27880042       1.00472421
C        0.54992794       1.35462080      -0.05300022
C        0.53442155      -0.81648722      -1.33886027
H        0.12082384      -1.82842949      -1.36953068
H        0.20362466      -0.29350677      -2.23837585
H        1.62320690      -0.87411724      -1.31558615
C        0.38281749      -0.85286561       1.16623026
H        1.46209415      -0.88267881       1.33382574
H       -0.10714738      -0.34556240       1.99332924
H       -0.00828665      -1.86909351       1.09593416
N        0.30556255       1.98420918       1.26301232
H        0.27029016       2.98705385       1.10385083
H        1.14251107       1.79701206       1.81543345
C       -0.12999022       2.17696097      -1.08224257
N       -0.66146679       2.85691105      -1.88167291
