14
Properties=species:S:1:pos:R:3 Coordinates=T from=T ORCA-job=T run=T Energy:=T 25.2539406=T pbc="F F F"
C        0.15367322      -0.09141691       0.03718038
H        1.51829249       1.52841816      -0.17691073
F       -1.25757642      -0.23153557       0.18752670
H        3.30017608      -0.23335201       0.24932602
C        0.44148369       1.39630130      -0.02963248
H        0.14699456       1.84156110       0.92372925
H       -0.12266675       1.85696554      -0.84855010
C        0.53816669      -0.77284921      -1.26344638
H        0.04297099      -0.29384135      -2.11442200
H        1.62750431      -0.71602301      -1.36726080
H        0.23497186      -1.82364165      -1.23302732
N        0.77520018      -0.66240298       1.20354772
H        1.80411421      -0.53202129       1.04738803
H        0.61146490      -1.66550212       1.19501171
