18
Properties=species:S:1:pos:R:3 Coordinates=T from=T ORCA-job=T run=T Energy:=T 72.7144626=T pbc="F F F"
C        0.15957016       0.01672304       0.01013608
H        1.72152372       1.44110684      -0.20973258
F       -1.27212659       0.08400740       0.10405624
F        3.06651717      -0.09816388       0.27062061
C        0.62917954       1.48683237      -0.11337037
C        0.49621250      -0.80570776      -1.21530181
H        0.12314226      -1.82234557      -1.06335796
H        0.04008881      -0.36913647      -2.10781330
H        1.58521521      -0.81988581      -1.29076056
N        0.65656756      -0.54779130       1.24110170
H        1.70190529      -0.51112780       1.10377492
H        0.37526938      -1.52838613       1.25813291
N        0.24588466       2.19280220       1.12907697
H        0.87602031       1.83910502       1.84626745
H       -0.65035656       1.75018495       1.32733747
N        0.08813284       2.15472767      -1.29717155
H        0.20252359       3.15556133      -1.16383097
H       -0.90581984       1.94858390      -1.37784525
