16
Properties=species:S:1:pos:R:3 Coordinates=T from=T ORCA-job=T run=T Energy:=T 46.9704451=T pbc="F F F"
C        0.80562126       0.03871468       0.38585349
H        1.72164890       1.81988340      -0.32160601
F       -2.86607536      -1.23169717      -3.49391769
H        1.60487443      -0.19211865       1.10522023
C        0.76434585       1.56163291       0.14871763
H       -0.14726086      -0.30720908       0.81647407
N        1.08612652      -0.65896900      -0.87517856
H        0.42213384      -0.29536083      -1.55375487
H        0.86718809      -1.64130582      -0.73640382
C        0.70585523       2.35025225       1.45406101
H       -0.15676077       2.06456765       2.05941858
H        1.61144051       2.20131873       2.05487184
H        0.60801429       3.41014413       1.20486077
N       -0.29453719       2.02326729      -0.75648224
H       -1.20323716       1.71076325      -0.43129665
H       -0.15410758       1.62263627      -1.68135780
