14
Properties=species:S:1:pos:R:3 Coordinates=T from=T ORCA-job=T run=T Energy:=T 104.4247738=T pbc="F F F"
C        0.07393807      -0.03742506      -0.18132206
H        1.49933064       1.51005741      -0.45350559
F       -1.32268137      -0.13123786      -0.07551388
Cl       3.03804141      -0.71043705       1.36160090
C        0.44580822       1.43493546      -0.16002888
H        0.50559397      -0.49692986       0.70691494
N        0.53500021      -0.61930918      -1.40144721
H        0.19888449      -1.57440753      -1.42912352
H        1.55129993      -0.66035441      -1.32397452
N        0.23062894       2.00241976       1.17491766
H        0.38440665       3.00395229       1.11514781
H        0.95884176       1.61509341       1.76983752
C       -0.36116145       2.13648045      -1.16741101
N       -0.97542146       2.77047216      -1.94304215
