14
Properties=species:S:1:pos:R:3 Coordinates=T from=T ORCA-job=T run=T Energy:=T 143.9776757=T pbc="F F F"
C        0.60505293       0.02953382      -0.02087127
H        2.00421218       1.62581799      -0.17745659
Cl      -2.57912284      -1.52125332      -0.22721172
F        1.48027417      -0.50153237       0.96772375
C        0.92764876       1.51633538      -0.06541203
H       -0.41081842      -0.17261748       0.30755077
N        0.86650405      -0.53498194      -1.30075008
H       -0.02642728      -0.75425537      -1.73686626
H        1.36903971      -1.39962330      -1.16330484
N        0.59756746       2.11783759       1.27881422
O       -0.59244908       2.13676283       1.57420454
O        1.53232742       2.47848922       1.97944397
C        0.21080339       2.22173128      -1.12085517
N       -0.23765245       2.72509568      -2.08441930
