15
Properties=species:S:1:pos:R:3 Coordinates=T from=T ORCA-job=T run=T Energy:=T 68.1136520=T pbc="F F F"
C        0.70357702      -0.06609905      -0.19269780
H        1.81870567       1.69997606      -0.16617160
Br      -3.04625878      -0.53863995       1.66271241
F        1.68043224      -0.51737804       0.73957698
C        0.75278473       1.45931316      -0.15512837
H       -0.25596759      -0.40246845       0.20068499
N        1.01848614      -0.59157491      -1.48300575
H        0.88415873      -1.59373207      -1.44073695
H        1.99890138      -0.42066510      -1.68007108
C        0.14161129       2.00231162       1.14474085
H       -0.87836151       1.63020322       1.29272258
H        0.75179110       1.63584308       1.97215513
H        0.14325800       3.09775765       1.17718131
C        0.18985021       2.06744069      -1.36323576
N       -0.16376862       2.59928210      -2.35134695
