15
Properties=species:S:1:pos:R:3 Coordinates=T from=T ORCA-job=T run=T Energy:=T 68.6174142=T pbc="F F F"
C        0.68303247       0.12771996      -0.10779899
H        1.63427607       1.94918936      -0.54089947
Br      -0.99381795      -0.69360962       0.71643656
H        1.74374872      -1.83916624       1.49531953
C        0.61911015       1.63925812      -0.25262424
H        1.40554323      -0.18321882       0.66602054
N        0.89940695      -0.51491115      -1.36917554
H       -0.00198067      -0.68457274      -1.80947739
H        1.32278085      -1.41081948      -1.14625352
C        0.34832795       2.25504312       1.03833570
N        0.16171817       2.73626775       2.09322737
C       -0.34900752       2.08560247      -1.35343832
H        0.05138602       1.71220913      -2.29401956
H       -1.35027478       1.68309809      -1.19822595
H       -0.38992966       3.17187006      -1.40391673
