17
Properties=species:S:1:pos:R:3 Coordinates=T from=T ORCA-job=T run=T Energy:=T 169.1718466=T pbc="F F F"
C        0.06803344      -0.15165590       0.06383794
H        1.58936762       1.31224601       0.26790530
Br      -1.99041273      -0.29067304       0.14561068
F        2.60840616       0.27027384      -1.50264730
C        0.49561751       1.32516024       0.12304586
N        0.48005212      -0.84020394      -1.04977921
H        0.53120079      -1.82798041      -0.82485310
H        1.49203632      -0.41563980      -1.31837037
N        0.45027741      -0.86495779       1.37961755
O        0.51072866      -0.19874067       2.40718519
O        0.60818657      -2.08514152       1.31821008
C       -0.13914417       2.09506802       1.18823630
N       -0.56304365       2.79094567       2.03398314
C        0.23475817       2.02644121      -1.22643358
H        0.94939661       1.53943507      -1.89627012
H       -0.80801796       1.95435366      -1.54131345
H        0.47895713       3.08654935      -1.14663493
