17
Properties=species:S:1:pos:R:3 Coordinates=T from=T ORCA-job=T run=T Energy:=T 91.4668436=T pbc="F F F"
C        0.06932150      -0.13081201       0.03789722
H        1.55008869       1.33348602       0.10331696
Cl      -1.76135945      -0.33107704       0.17690675
F        2.80017387      -0.04585202      -0.63570460
C        0.45222973       1.37492347       0.07607835
N        0.47879730      -0.71205789      -1.20253697
H        0.25605147      -1.70277841      -1.18717057
H        1.55898084      -0.54481604      -1.12494913
C        0.59040527      -0.85588097       1.21624070
N        0.90145488      -1.51134511       2.14198389
C       -0.09961178       2.10100364       1.29869501
H       -1.19088165       2.09515611       1.30730389
H        0.26422183       1.65917819       2.23073967
H        0.24107818       3.13759808       1.27522340
N        0.05323984       1.98303203      -1.21523323
H        0.72423071       2.71429374      -1.43472701
H       -0.86407123       2.41002822      -1.14437433
