14
Properties=species:S:1:pos:R:3 Coordinates=T from=T ORCA-job=T run=T Energy:=T 86.2630752=T pbc="F F F"
C        0.01187108      -0.11070273       0.02335300
H        1.90473849       1.01006176      -0.02419125
Cl      -1.82194148      -0.12996070       0.08733547
F        2.80908307       0.57077601      -0.21241101
C        0.49768870       1.31057138       0.02738783
N        0.38572244      -0.75660912      -1.20521161
H        0.06519465      -1.71679039      -1.18271650
H        1.40781602      -0.73288746      -1.23610419
C        0.43751248      -0.82422988       1.24966069
N        0.69301151      -1.53895252       2.15028143
C        0.16311070       2.04477838       1.21200281
N       -0.24518305       2.61732067       2.15749989
C        0.20402625       1.99851772      -1.19469071
N       -0.04502087       2.58955688      -2.18301584
