16
Properties=species:S:1:pos:R:3 Coordinates=T from=T ORCA-job=T run=T Energy:=T 124.4760966=T pbc="F F F"
C       -0.06211728      -0.10074017       0.10200777
H        1.56240514       1.20853183       0.15554281
F       -1.45965752      -0.13226193       0.26673700
F        2.62405865       0.10794264      -1.21763125
C        0.47101264       1.33664408       0.08708399
N        0.27256796      -0.76736891      -1.10176260
H        0.17065016      -1.76448015      -0.94896619
H        1.32216217      -0.51832661      -1.25692365
C        0.44182618      -0.75730187       1.34196934
N        0.80732896      -1.32775256       2.30102982
C       -0.06809118       2.07998688       1.21398122
N       -0.48288640       2.68332372       2.13458360
C        0.20894188       2.01776059      -1.25973896
H        0.78848025       1.39700562      -1.94018855
H       -0.85268862       2.05603506      -1.52330836
H        0.62741700       3.02647179      -1.23919600
