14
Properties=species:S:1:pos:R:3 Coordinates=T from=T ORCA-job=T run=T Energy:=T 195.0218391=T pbc="F F F"
C       -0.10356860      -0.10827685      -0.10558638
H        0.83118793       1.62742673      -0.77557419
F       -1.34073888      -0.21690185      -0.78996728
F        2.93821244       0.71049504      -0.08090957
C        0.19743351       1.38301627       0.07722032
H       -0.75846131       1.91414635       0.02814811
N        0.89768813      -0.71716236      -0.90992555
H        0.90331323      -1.72355136      -0.81005337
H        1.82297965      -0.28928519      -0.63512477
C       -0.39916436      -0.76132123       1.20009673
N       -0.70437518      -1.36572022       2.16302164
N        0.92628116       1.64768516       1.31543153
H        0.94349939       2.66163605       1.39958292
H        1.88012290       1.33339346       1.03463985
