14
Properties=species:S:1:pos:R:3 Coordinates=T from=T ORCA-job=T run=T Energy:=T 217.9144868=T pbc="F F F"
C       -0.12963335      -0.06006219      -0.08921837
H        0.96104894       1.60648960      -0.66869527
F       -1.34920775      -0.15764308      -0.79023052
Br       3.93854858       0.00177829      -0.48253640
C        0.19099362       1.43125631       0.07691264
H       -0.70611699       1.98840442      -0.18739958
N        0.86045727      -0.65363916      -0.92615910
H        0.79649106      -1.66032893      -0.93477915
H        1.78868015      -0.37375852      -0.58854416
C       -0.38348887      -0.77627478       1.17950116
N       -0.66962877      -1.46648501       2.08825080
N        0.64564992       1.79287905       1.40938774
H        0.46326315       2.78391783       1.50859940
H        1.64718304       1.66252618       1.42290082
