17
Properties=species:S:1:pos:R:3 Coordinates=T from=T ORCA-job=T run=T Energy:=T 220.6469180=T pbc="F F F"
C        1.12713446      -0.03975601      -0.13617307
H        1.87911681       1.91578082       0.38752083
Cl      -2.63797689      -0.26968467       1.07329562
H        2.05157068      -0.26695510      -0.68451686
C        0.97309154       1.50363871      -0.08173283
N       -0.00484363      -0.54970136      -0.88667078
H       -0.86324450      -0.29178377      -0.38786102
H        0.01408159      -1.56672009      -0.87528762
C        1.27621264      -0.64125906       1.27288909
H        1.98188541      -0.08055358       1.89311746
H        0.31242356      -0.70274633       1.78151144
H        1.67081507      -1.65236076       1.17562850
N       -0.19908319       1.96611613       0.63407302
H       -0.00144426       1.95387318       1.62848259
H       -0.95183401       1.28432288       0.52013370
C        0.96049004       2.01522254      -1.47091593
N        1.02906468       2.44406648      -2.56494413
