18
Properties=species:S:1:pos:R:3 Coordinates=T from=T ORCA-job=T run=T Energy:=T 184.6042558=T pbc="F F F"
C        1.14648579      -0.01645055       0.10371145
H        1.60307742       1.94681763      -0.32428295
F       -1.59138922      -0.39439878      -0.40169953
F        2.55554294       0.09249943       0.36006700
C        0.68330258       1.45152269      -0.02095715
N        0.98493070      -0.65815049      -1.16885869
H       -0.05281056      -0.74420575      -1.22962008
H        1.38404403      -1.58455503      -1.09718659
C        0.56453778      -0.78865943       1.25848896
H        0.99849316      -1.79305616       1.25877642
H        0.81346056      -0.28210579       2.19461970
H       -0.51480845      -0.85222113       1.08001878
C        0.13332026       2.07272568       1.26766678
H       -0.81246388       1.59322283       1.54138705
H        0.86177544       1.98065989       2.07872743
H       -0.06357931       3.13674471       1.11046052
C       -0.23750567       1.68740566      -1.13361247
N       -0.90013357       2.02104459      -2.04603662
