16
Properties=species:S:1:pos:R:3 Coordinates=T from=T ORCA-job=T run=T Energy:=T 58.7506674=T pbc="F F F"
C        0.05052719      -0.02864696       0.06570461
H        1.69790063       1.25060541       0.27200676
F       -1.36734858       0.10221840       0.08872521
F        2.95780747      -0.05348117      -0.49828200
C        0.60975280       1.38453974       0.18861056
H        0.39504755       1.81949926      -0.79213416
N        0.44703964      -0.54954991      -1.22435321
H        0.25435362      -1.55015090      -1.22821978
H        1.49490032      -0.43074607      -1.20433626
C        0.43988976      -0.94030716       1.21891423
H        1.53058960      -0.99627244       1.22863012
H        0.06572778      -0.55211868       2.17081025
H        0.02709505      -1.93893582       1.05124222
N        0.00882329       2.25512775       1.21053653
H        0.47313068       3.15427085       1.12821447
H        0.21964321       1.87771771       2.13244048
