13
Coordinates from ORCA-job run	Energy:      74.4125474
C          1.04814        0.03645        0.06079
H          1.73717        2.04060       -0.25909
Br        -2.08920       -0.69374       -0.37015
F          2.33379       -0.14686        0.52956
C          0.76947        1.55387       -0.04610
H          0.96681       -0.47657       -0.92227
H          0.37101       -0.47154        0.78503
C          0.19529        2.09689        1.26433
H         -0.81015        1.66121        1.47720
H          0.87804        1.83715        2.09800
H          0.09334        3.20089        1.20741
C         -0.06635        1.95211       -1.19661
N         -0.71616        2.31750       -2.08296
