13
Coordinates from ORCA-job run	Energy:      36.6095561
C          0.13513       -0.02555       -0.01387
H          1.63590        1.52188        0.09516
F         -1.24147       -0.16517       -0.06256
F          3.28640       -0.65828       -0.03671
C          0.52578        1.45638        0.04679
H          0.57873       -0.49605       -0.91711
H          0.51820       -0.55992        0.88077
N         -0.02984        2.08269        1.24043
O         -0.77197        3.01503        1.15810
O          0.27939        1.67716        2.32021
N          0.08538        2.13405       -1.17716
H          0.40576        3.12983       -1.16189
H         -0.95756        2.11402       -1.25453
