13
Coordinates from ORCA-job run	Energy:      34.7630546
C          1.05262       -0.02483       -0.03692
H          1.92225        1.90287        0.38360
Br        -2.82141       -0.49311        0.34966
F          2.03962       -0.35708       -0.94719
C          0.92778        1.50735        0.07964
H          0.09044       -0.47132       -0.36301
H          1.32762       -0.46333        0.94617
N         -0.04018        1.84497        1.11696
O         -1.01060        2.49595        0.86685
O          0.14543        1.48491        2.24036
N          0.56560        2.12562       -1.19541
O          0.51512        3.31623       -1.27945
O          0.34072        1.46454       -2.16474
