12
Coordinates from ORCA-job run	Energy:      55.3869722
C          0.17707       -0.06481       -0.24084
H          1.61086        1.45188       -0.42731
Br        -1.70760       -0.42138        0.03484
Cl         3.11836        0.29989        1.60175
C          0.52895        1.41131       -0.17997
H          0.44659       -0.48055       -1.22463
H          0.75141       -0.58656        0.53930
N          0.27791        1.93449        1.15518
H          0.49381        2.94679        1.15741
H          1.00415        1.50978        1.75216
C         -0.19274        2.18859       -1.19883
N         -0.74702        2.82888       -1.98625
