11
Coordinates from ORCA-job run	Energy:      18.1300817
C          0.25482       -0.01910       -0.01283
H          1.65392        1.62147       -0.06131
F         -1.10867       -0.23864        0.04727
H          3.19925       -0.51168        0.18245
C          0.55194        1.47620       -0.03774
H          0.66490       -0.50322       -0.92407
H          0.73009       -0.47754        0.87991
H          0.15397        1.95504        0.88323
N         -0.03772        2.10073       -1.21771
H          0.21843        3.11433       -1.21750
H         -1.08007        2.03593       -1.16295
