12
Coordinates from ORCA-job run	Energy:      43.6013248
C          0.22691       -0.04200       -0.01920
H          1.65141        1.61045        0.00670
Br        -1.67753       -0.42621       -0.04565
Br         3.43089       -0.47303        0.06584
C          0.55443        1.46612        0.00509
H          0.68121       -0.49885       -0.92841
H          0.66046       -0.55093        0.86993
C          0.05208        2.13772        1.21385
N         -0.32426        2.70905        2.14892
N          0.02450        2.12321       -1.18805
H          0.22866        3.14705       -1.12224
H         -1.01077        2.00991       -1.22962
