11
Coordinates from ORCA-job run	Energy:      44.3497311
C          0.25210       -0.06767       -0.00098
H          1.66469        1.67997       -0.01399
Br        -1.67204       -0.42076       -0.01237
Br         3.28886       -0.37236        0.02252
C          0.58313        1.44781       -0.00679
H          0.68441       -0.56717       -0.90955
H          0.67611       -0.56111        0.91571
C          0.04513        2.10757        1.19257
N         -0.35943        2.67630        2.11688
C          0.02332        2.10787       -1.19179
N         -0.39809        2.66834       -2.11320
