13
Coordinates from ORCA-job run	Energy:      37.1053837
C          0.97823        0.04434        0.04974
H          1.83008        1.96565       -0.49994
Cl        -2.69590       -0.53695       -0.54859
Cl         2.37567       -0.43581        1.05129
C          0.87076        1.57316       -0.09182
H          1.11920       -0.42038       -0.94919
H          0.05057       -0.36499        0.50155
N          0.61793        2.18935        1.21675
H          0.59386        3.22881        1.10379
H          1.40349        1.97734        1.87183
N         -0.19463        1.90537       -1.02930
O         -1.12855        2.56887       -0.68997
O         -0.12468        1.53301       -2.16155
