13
Coordinates from ORCA-job run	Energy:      36.8736781
C          0.49882        0.11349        0.48186
H          1.54037        1.66171       -0.61598
F         -0.04313       -0.41819       -3.12127
H          1.42307       -0.27657        0.95966
C          0.68518        1.58585        0.09364
H          0.28918       -0.49847       -0.42021
H         -0.34618        0.00342        1.19485
N          0.97668        2.38297        1.28325
H          1.11705        3.37859        0.99612
H          1.87151        2.04981        1.71094
N         -0.51711        2.10335       -0.55923
H         -1.33945        2.01071        0.08031
H         -0.70597        1.56168       -1.43292
