12
Coordinates from ORCA-job run	Energy:     144.0354844
C          1.12395       -0.02733        0.09482
H          1.74745        2.01944        0.37899
Br        -2.03130       -0.26573       -0.29880
Cl         2.86988       -0.25242       -0.28021
C          0.81081        1.49611        0.15469
H          0.54132       -0.48194       -0.73763
H          0.46727        1.82207       -0.84294
N          0.80262       -0.77683        1.29093
O          0.70956       -0.24556        2.35448
O          0.77167       -1.96636        1.22457
C         -0.16607        2.03219        1.12945
N         -0.90715        2.51728        1.86745
