13
Coordinates from ORCA-job run	Energy:      33.4377073
C          1.02281        0.03299        0.06157
H          1.37039        2.07247        0.74972
Br        -2.71281       -0.73530       -0.33175
Cl         2.63331       -0.10784       -0.70466
C          0.61711        1.51808        0.14715
H          0.28488       -0.49735       -0.57734
H         -0.37301        1.61034        0.64691
N          1.05203       -0.61199        1.36522
O          0.79632       -0.00721        2.36356
O          1.31200       -1.77543        1.43917
N          0.53613        2.11052       -1.18450
H          0.29918        3.12367       -1.08372
H         -0.24334        1.65389       -1.71246
