14
Coordinates from ORCA-job run	Energy:      22.9361818
C          0.93953       -0.05517       -0.01598
H          1.38846        2.00041        0.58240
Cl        -2.69796       -0.42061        0.39165
Cl         2.49620       -0.27647       -0.87285
C          0.57806        1.44432        0.06121
H          0.14410       -0.57933       -0.58987
H         -0.36122        1.56494        0.64348
N          1.03187       -0.67170        1.29887
O          0.85933       -0.03564        2.29604
O          1.25992       -1.84008        1.38606
C          0.34211        2.05946       -1.31811
H          1.25355        1.99481       -1.94763
H         -0.49335        1.53609       -1.83099
H          0.07052        3.13027       -1.20510
