12
Coordinates from ORCA-job run	Energy:      90.4120583
C          0.27021       -0.06926        0.06088
H          1.60622        1.54786        0.37646
Cl        -1.45820       -0.38314       -0.19782
F          2.96237       -0.07797       -0.04902
C          0.57581        1.42615        0.14219
H          0.84610       -0.46479       -0.80529
H          0.44756        1.88415       -0.84996
N          0.71592       -0.80342        1.22053
O          0.82993       -0.27059        2.28468
O          0.87899       -1.98426        1.12580
C         -0.15561        2.17976        1.15476
N         -0.77208        2.82484        1.89029
