14
Coordinates from ORCA-job run	Energy:     127.3285390
C          0.95559       -0.07639       -0.02083
H          1.78401        1.88157        0.18286
F         -1.63828        0.07471        0.39930
F          2.21555       -0.35249       -0.50591
C          0.77265        1.47610        0.04299
H          0.25639       -0.53815       -0.75785
C          0.79661       -0.78008        1.26903
N          0.67720       -1.35658        2.26680
C          0.01015        2.05424        1.17180
N         -0.56957        2.57708        2.02748
C          0.14188        2.00102       -1.25200
H          0.72082        1.67647       -2.13744
H         -0.89205        1.60205       -1.33702
H          0.06999        3.11192       -1.24829
