14
Coordinates from ORCA-job run	Energy:      59.1786137
C          0.22439       -0.12955       -0.02493
H          1.58317        1.60889       -0.09032
Cl        -1.48457       -0.54663       -0.31526
F          3.00462       -0.12733        0.22098
C          0.49786        1.40475       -0.02860
H          0.81171       -0.58807       -0.85250
C          0.60339       -0.75446        1.25761
N          0.88990       -1.22312        2.27683
C          0.02459        2.10499        1.24730
H         -1.04541        1.90528        1.44570
H          0.62829        1.74422        2.11025
H          0.19602        3.19940        1.16874
C         -0.07492        2.06454       -1.20961
N         -0.50864        2.62522       -2.12325
