12
Coordinates from ORCA-job run	Energy:      18.9910740
C         -0.09551       -0.12289        0.09714
H          3.14906        1.14406        0.16641
F         -1.47504       -0.22968        0.12213
F          3.37855        0.51464       -0.55634
C          0.32779        1.35005        0.00775
H          0.28520       -0.65269       -0.80057
H         -0.05685        1.78244       -0.94132
C          0.47619       -0.77459        1.28199
N          0.92460       -1.28905        2.21656
N         -0.10913        2.17653        1.11977
O          0.21547        3.32482        1.15176
O         -0.78576        1.73549        1.99898
