12
Coordinates from ORCA-job run	Energy:      22.2573794
C          0.12344       -0.04659        0.05268
H          1.59898        1.53811        0.13753
Br        -1.79712       -0.31303       -0.04317
F          3.41489       -0.45843       -0.24927
C          0.49471        1.44278        0.03639
H          0.59688       -0.55875       -0.81269
H          0.01928        1.97048        0.89240
C          0.61116       -0.67373        1.28760
N          0.99428       -1.16950        2.26054
N          0.09369        2.07284       -1.21881
H          0.43463        3.06113       -1.21755
H         -0.94909        2.10052       -1.28517
