13
Coordinates from ORCA-job run	Energy:     104.9731469
C          0.47942       -0.04162        0.06570
H          1.77290        1.73843       -0.05732
Cl        -2.36031       -0.09975        0.05337
F          3.12813       -0.29588       -0.23525
C          0.71253        1.47962       -0.00437
H          0.63878       -0.63162       -0.86389
C          0.71232       -0.73638        1.34107
N          0.85466       -1.34056        2.31518
C          0.15368        2.13784        1.20858
N         -0.31199        2.63093        2.14016
N          0.05411        1.98206       -1.21555
O         -0.50676        3.03811       -1.21546
O          0.30160        1.46636       -2.26588
