13
Coordinates from ORCA-job run	Energy:     177.1622328
C          0.04514       -0.05065        0.28221
H          1.61549        1.42142        0.79022
F         -1.14059       -0.08973        0.97928
H          2.15481       -0.11122       -0.92528
C          0.61921        1.41102        0.28693
H         -0.17022       -0.40420       -0.75637
C          0.89956       -1.03954        0.98225
N          1.51563       -1.82883        1.56616
N         -0.26454        2.28856        1.02848
O         -1.27180        2.68945        0.52909
O         -0.07128        2.46031        2.18897
C          0.74905        2.00026       -1.06519
N          0.88061        2.52966       -2.08946
