12
Coordinates from ORCA-job run	Energy:      66.4405990
C          1.00904       -0.00762       -0.01351
H          1.63092        1.97939        0.47979
Cl        -2.05692       -0.19121       -0.03693
F          2.26513       -0.20727       -0.53072
C          0.72019        1.48445        0.09638
H          0.31003       -0.50084       -0.71313
H         -0.11349        1.67014        0.81285
C          0.95871       -0.66612        1.29631
N          0.94181       -1.16480        2.33765
N          0.37014        2.01628       -1.21643
H          0.29962        3.05461       -1.16071
H         -0.59265        1.67563       -1.45020
