15
Coordinates from ORCA-job run	Energy:      32.7264919
C          0.04478       -0.06981        0.06368
H          1.57508        1.47607       -0.00111
Cl        -1.73055       -0.26658        0.01913
Cl         3.82019       -0.52108       -0.11747
C          0.46332        1.42306        0.01450
H          0.46112       -0.59063       -0.82506
C          0.56760       -0.75217        1.25568
N          0.97576       -1.28919        2.19605
C         -0.00063        2.19770        1.26760
H         -1.10726        2.18497        1.36125
H          0.44115        1.75950        2.18661
H          0.34021        3.25348        1.20594
N         -0.03163        2.03618       -1.21464
O         -0.76354        2.97963       -1.18479
O          0.31335        1.60149       -2.27272
