14
Coordinates from ORCA-job run	Energy:      42.6178102
C          1.06585        0.08525        0.03301
H          1.97246        2.05356        0.17016
Cl        -2.76922       -0.55002        0.36537
H          1.78661       -0.24274       -0.74662
C          0.95685        1.62259        0.01655
H          0.08164       -0.37134       -0.19510
C          1.51901       -0.42119        1.33421
N          1.86293       -0.82261        2.36354
N          0.07051        2.12799        1.06637
H          0.48913        1.94851        2.00695
H         -0.86211        1.66145        1.01102
N          0.47091        2.06253       -1.29330
H          0.42222        3.10547       -1.31149
H         -0.49408        1.68845       -1.45544
