15
Coordinates from ORCA-job run	Energy:     174.9615482
C          1.03900       -0.00259        0.01395
H          1.70583        1.99616        0.06864
Cl        -1.97155       -0.34339       -0.10400
Br         2.92787       -0.30523       -0.27778
C          0.72319        1.52351        0.03937
H          0.55493       -0.48065       -0.87238
C          0.75488       -0.69304        1.28971
N          0.56077       -1.20714        2.30728
C         -0.00775        2.07268        1.29577
H         -1.06292        1.74857        1.37307
H          0.52045        1.73100        2.21186
H          0.02091        3.18438        1.30472
N          0.09195        1.94856       -1.21861
H          0.10629        2.98768       -1.30059
H         -0.90658        1.65763       -1.25861
