14
Coordinates from ORCA-job run	Energy:      26.1167382
C          0.17305       -0.01836        0.12671
H          1.81063        1.40510        0.44140
F         -1.19806        0.01438       -0.05306
H          3.05482       -0.25799       -0.99556
C          0.72437        1.41753        0.20044
H          0.63033       -0.51729       -0.75338
H          0.61183        1.86865       -0.81046
C          0.52413       -0.87428        1.34692
H          1.62780       -0.94770        1.45144
H          0.09494       -0.46690        2.28259
H          0.12144       -1.89958        1.20291
N          0.00964        2.24088        1.15901
O         -0.57852        3.21100        0.79025
O          0.04159        1.98294        2.32466
