14
Coordinates from ORCA-job run	Energy:       8.1982299
C          0.74185       -0.10220        0.01792
H          3.09062        1.24389       -0.34994
Br        -3.25101       -0.28612        0.67418
H          3.24006        1.92554       -0.23497
C         -0.07014        1.19053        0.04347
H          0.44443       -0.74672       -0.83788
H          0.27800        1.80963        0.90082
C          0.61269       -0.88790        1.31260
H          1.34893       -1.71890        1.30933
H          0.82290       -0.23908        2.18964
H         -0.40836       -1.31792        1.41247
N          0.09990        1.91877       -1.19352
O          0.59705        3.00347       -1.19076
O         -0.29226        1.45205       -2.22061
