15
Coordinates from ORCA-job run	Energy:     183.5564712
C          0.94697       -0.05772       -0.00627
H          1.85578        1.89567        0.08132
F         -1.78887        0.24564       -0.00461
Cl         2.54317       -0.53423       -0.64060
C          0.83545        1.47564        0.05298
H          0.19269       -0.41873       -0.72758
C          0.65399       -0.75295        1.31582
H          1.26761       -0.34865        2.13975
H         -0.41386       -0.57642        1.53152
H          0.82947       -1.83512        1.23363
C          0.20795        2.00397        1.28560
N         -0.27661        2.44783        2.24049
N          0.21163        1.95704       -1.16486
H          0.08449        2.97700       -1.13407
H         -0.75737        1.63057       -1.15351
