16
Coordinates from ORCA-job run	Energy:      97.9754415
C          0.92338       -0.07373       -0.00427
H          1.80351        1.91865        0.17684
F         -2.00935       -0.00935        0.05449
Br         2.66188       -0.54135       -0.74676
C          0.77839        1.49463        0.06069
H          0.17258       -0.52767       -0.68699
C          0.77171       -0.78231        1.35101
H          1.53666       -0.43239        2.07228
H         -0.23464       -0.59978        1.78700
H          0.86235       -1.88403        1.21927
C         -0.01430        2.07290        1.24269
H         -1.08865        1.80631        1.26063
H          0.44530        1.76794        2.20546
H          0.04165        3.18112        1.20130
C          0.19498        1.97463       -1.21005
N         -0.25386        2.39560       -2.18809
