17
Coordinates from ORCA-job run	Energy:      41.9448508
C         -0.06440       -0.19265        0.12192
H          1.59464        1.19539       -0.08141
Br        -2.01173       -0.22728        0.16233
H          3.99066        1.42900       -0.07957
C          0.48684        1.25415       -0.00808
H          0.25602       -0.76223       -0.77788
C          0.48060       -0.94258        1.34100
H          1.59090       -0.95418        1.32255
H          0.13340       -0.48067        2.28774
H          0.11811       -1.99213        1.32582
C          0.17174        2.12955        1.22388
H         -0.92294        2.22782        1.37759
H          0.63082        1.71003        2.14176
H          0.60342        3.14337        1.08337
N         -0.00863        1.86131       -1.24102
O         -0.64233        2.87475       -1.22055
O          0.24206        1.35418       -2.29179
