14
Coordinates from ORCA-job run	Energy:      19.0828007
C          0.21134       -0.08112       -0.01748
H          1.35628        1.72721        0.33418
F         -1.07547       -0.44805       -0.37563
Br         4.20591       -0.14062       -0.03572
C          0.31950        1.44652        0.04883
H          0.92002       -0.46409       -0.78432
H         -0.38081        1.84713        0.81535
C          0.55127       -0.71354        1.32983
H          0.47895       -1.81861        1.25256
H          1.58527       -0.44642        1.63411
H         -0.15649       -0.36297        2.10997
N          0.01263        2.03922       -1.24880
H          0.13763        3.07499       -1.17980
H         -0.99008        1.85906       -1.48564
