16
Coordinates from ORCA-job run	Energy:      94.6286566
C          0.05443       -0.20298        0.12618
H          2.64687        1.30737       -0.22264
Cl        -2.74316       -0.92453       -0.09124
H          3.21338        1.59484       -0.50760
C          0.34570        1.29629        0.02442
H          0.44613       -0.74935       -0.77104
C          0.46467       -0.86631        1.44111
H          1.56242       -0.85126        1.62596
H         -0.06025       -0.35918        2.27660
H          0.11448       -1.91858        1.41328
C          0.34748        2.14707        1.23491
N          0.37173        2.78652        2.20016
C         -0.01415        1.98293       -1.29535
H          0.21349        1.28953       -2.13453
H         -1.07519        2.30933       -1.36302
H          0.65763        2.86179       -1.40729
