18
Coordinates from ORCA-job run	Energy:      28.9465737
C          0.11902       -0.10052        0.18770
H          1.62590        1.46329        0.18727
Br        -1.81055       -0.37800        0.11561
F          3.20515       -0.35270       -1.32400
C          0.51758        1.40041        0.12592
H          0.55699       -0.60961       -0.69903
C          0.68200       -0.81087        1.42226
H          1.78782       -0.70908        1.45209
H          0.25138       -0.40192        2.35773
H          0.43390       -1.89210        1.37604
C         -0.06854        2.23510        1.27838
H         -1.17853        2.22630        1.25607
H          0.27632        1.85796        2.26285
H          0.27230        3.28904        1.19390
C          0.10857        2.01672       -1.22067
H          0.57382        1.45237       -2.05718
H         -0.99338        2.00656       -1.35090
H          0.45946        3.06914       -1.28229
