12
Coordinates from ORCA-job run	Energy:      42.1710076
C          1.01262       -0.02350       -0.13662
H          1.16531        1.94204        0.72568
Cl        -2.06514       -0.77563        0.65469
F          2.22561       -0.03041       -0.80092
C          0.50757        1.41303        0.00835
H          0.29239       -0.62943       -0.73282
H         -0.52919        1.44471        0.39982
N          1.21319       -0.60668        1.18778
H          1.63185       -1.55442        1.07737
H          0.30842       -0.71818        1.69147
C          0.58212        2.14571       -1.25793
N          0.68233        2.71072       -2.26137
