14
Coordinates from ORCA-job run	Energy:      95.7322795
C          0.01349       -0.10803        0.00033
H          1.58361        1.24742        0.03939
Cl        -1.75022       -0.22959       -0.20335
H          3.21481        0.13365        0.32377
C          0.52459        1.33327        0.02697
H          0.48864       -0.57794       -0.88591
N          0.43059       -0.78515        1.22202
H          1.45191       -0.62125        1.34558
H          0.32199       -1.80843        1.07042
N          0.12715        2.05684        1.21296
O         -0.68324        2.93605        1.15787
O          0.66448        1.83013        2.25806
C          0.20295        2.03517       -1.22051
N         -0.03002        2.53889       -2.23248
