16
Coordinates from ORCA-job run	Energy:      50.7079582
C          0.03683       -0.08753        0.07009
H          1.61852        1.40365        0.14864
Br        -1.90640       -0.22446       -0.00732
H          3.50586       -0.18859       -0.21997
C          0.50834        1.38986        0.07767
H          0.45065       -0.59478       -0.83066
N          0.51305       -0.79522        1.25676
H          1.55865       -0.78706        1.26799
H          0.20902       -1.79405        1.19825
N         -0.03524        2.11158        1.22600
O         -0.72033        3.07948        1.07817
O          0.23780        1.75896        2.33349
C          0.15343        2.07611       -1.25640
H          0.61342        1.52648       -2.10538
H         -0.94497        2.11724       -1.41232
H          0.55002        3.11399       -1.26585
