13
Coordinates from ORCA-job run	Energy:     149.1097700
C          1.06614       -0.05102       -0.02167
H          1.70078        1.93453        0.26457
Cl        -2.02239       -0.21379        0.03220
F          2.38555       -0.14074       -0.44065
C          0.73231        1.46690        0.07538
H          0.48791       -0.60017       -0.80771
N          0.94549       -0.71594        1.28200
H          1.72259       -1.40078        1.36935
H          0.06070       -1.27714        1.35997
C         -0.06704        1.95819        1.21267
N         -0.66534        2.43590        2.07701
C          0.24251        2.02637       -1.19444
N         -0.12905        2.46127       -2.20175
