17
Coordinates from ORCA-job run	Energy:      23.2780231
C          0.33626       -0.03527        0.13092
H          1.72966        1.62783        0.20275
Br        -3.11810       -0.73857        0.66751
H          3.18541       -0.19536       -1.26094
C          0.63349        1.47090        0.10016
H          0.79382       -0.54943       -0.74294
N          0.82013       -0.64835        1.36297
H          1.86654       -0.63723        1.36197
H          0.50546       -1.64436        1.37327
C         -0.08321        2.18973        1.25055
H         -1.18372        2.05396        1.17193
H          0.25580        1.79451        2.23128
H          0.14525        3.27668        1.22396
C          0.18776        2.05916       -1.24204
H          0.72764        1.56215       -2.07664
H         -0.90518        1.91977       -1.38979
H          0.41986        3.14493       -1.28110
