13
Coordinates from ORCA-job run	Energy:      27.8590685
C          0.04537       -0.04419       -0.02877
H          1.70820        1.36016       -0.10902
F         -1.33810       -0.00251       -0.03337
H          3.71914       -0.08881        0.59619
C          0.59913        1.38515       -0.04394
H          0.38892       -0.58807       -0.93688
H          0.32154        1.88906        0.91094
N          0.49290       -0.74729        1.16985
H          1.53573       -0.80317        1.18043
H          0.11892       -1.72361        1.14474
N          0.06956        2.13506       -1.16805
O         -0.57000        3.12120       -0.97365
O          0.28111        1.77692       -2.28614
