15
Coordinates from ORCA-job run	Energy:      49.8804735
C          0.02143       -0.05516       -0.04345
H          1.66654        1.32862        0.14312
F         -1.35446       -0.05008       -0.20533
H          3.58657       -0.36969        0.31358
C          0.55585        1.38586        0.06510
H          0.47575       -0.54340       -0.93443
N          0.35860       -0.82113        1.15375
H          1.39748       -0.86470        1.25966
H          0.01058       -1.79972        1.03217
N          0.02449        2.05866        1.24037
O         -1.15055        2.23889        1.35822
O          0.76571        2.44339        2.09337
N          0.23077        2.14207       -1.14600
H          0.64233        3.10104       -1.07215
H         -0.80583        2.23801       -1.24825
