13
Coordinates from ORCA-job run	Energy:      32.0854470
C          0.89107       -0.10752       -0.02429
H          1.61902        1.83163        0.62283
Br        -3.04858        0.00028       -0.47897
F          2.01119       -0.38390       -0.79172
C          0.72051        1.40664        0.12365
H         -0.00314       -0.52946       -0.53121
H         -0.17069        1.62439        0.75372
N          1.02715       -0.73050        1.28874
H          1.90445       -0.39040        1.74687
H          1.10929       -1.76517        1.16085
N          0.55932        2.03336       -1.18419
H          0.46999        3.06597       -1.04716
H         -0.32765        1.69211       -1.62175
