14
Coordinates from ORCA-job run	Energy:      62.9855922
C          1.23597        0.15701        0.26157
H          1.57718        2.03815       -0.73343
F         -1.02017       -1.03095       -1.53757
H          2.26414        0.23632        0.67438
C          0.79077        1.59910       -0.08301
H          1.30152       -0.48620       -0.64414
N          0.39643       -0.46630        1.28617
H          0.91106       -1.28143        1.69351
H         -0.49266       -0.82095        0.87012
N          0.67566        2.41076        1.12676
H          1.58356        2.38969        1.64402
H         -0.06855        2.01811        1.75024
C         -0.45979        1.70118       -0.85453
N         -1.43657        1.82721       -1.46443
