14
Coordinates from ORCA-job run	Energy:      26.2525827
C          0.96354        0.00629       -0.01577
H          2.08319        1.66378       -0.90630
Cl        -2.76468       -0.45889       -0.53891
Cl         2.30887       -0.55012        1.02095
C          1.15616        1.50882       -0.31311
H          0.02011       -0.11485        0.56162
H          1.27102        2.04580        0.65391
N          0.91072       -0.83197       -1.20605
O          1.08179       -0.37752       -2.29738
O          0.72438       -2.00535       -1.08839
C         -0.03914        2.13744       -1.03447
H         -0.21213        1.67999       -2.02859
H         -0.95837        2.02476       -0.42203
H          0.15096        3.22108       -1.18466
