15
Coordinates from ORCA-job run	Energy:      64.0858166
C          0.08494       -0.06354       -0.17745
H          1.58913        1.50233       -0.29917
Cl        -1.68555       -0.26151        0.00964
H          2.95241       -0.27599        0.91389
C          0.48877        1.43695       -0.14436
H          0.56633       -0.56826        0.68979
N          0.52969       -0.74481       -1.38540
O          1.13170       -0.16565       -2.23936
O          0.33480       -1.91710       -1.50093
N          0.16982        2.02178        1.15920
H          0.48937        3.01710        1.17124
H          0.71478        1.51914        1.89842
N         -0.18245        2.18750       -1.21043
H          0.19218        3.16164       -1.23279
H         -1.20819        2.24722       -1.01818
