15
Coordinates from ORCA-job run	Energy:      60.8932785
C          0.82370       -0.01309        0.03176
H          1.83433        1.84361       -0.51698
Br        -2.93711       -0.78864       -0.71348
Br         2.25546       -0.63655        1.20005
C          0.84966        1.53401       -0.09739
H         -0.14571       -0.30404        0.49154
N          0.95112       -0.69646       -1.24891
O          1.11733       -0.09041       -2.26499
O          0.88737       -1.88825       -1.28692
N          0.65600        2.16768        1.21129
H          0.65318        3.20653        1.09504
H          1.45200        1.93770        1.84697
N         -0.20719        1.97782       -1.01007
H         -0.13533        3.01132       -1.15343
H         -1.14475        1.76452       -0.59921
