16
Coordinates from ORCA-job run	Energy:      49.5759593
C          0.87315       -0.01993       -0.01119
H          1.80639        1.90668       -0.42643
Br        -3.01008       -0.69904       -0.25235
Cl         2.16494       -0.51847        1.12716
C          0.81005        1.53101       -0.10442
H         -0.09658       -0.38598        0.38472
N          1.11877       -0.66738       -1.29309
O          1.28873       -0.03281       -2.29014
O          1.13856       -1.85951       -1.35212
C          0.45715        2.15942        1.25646
H         -0.53881        1.80277        1.59951
H          1.21120        1.90113        2.02761
H          0.42501        3.26541        1.16932
N         -0.18165        1.94399       -1.10282
H         -0.16107        2.98416       -1.21102
H         -1.14116        1.65643       -0.80462
