12
Coordinates from ORCA-job run	Energy:      20.4294165
C          0.03719        0.03409       -0.04608
H          1.68401        1.47656        0.04016
Cl        -1.74788        0.08292       -0.07200
Cl         3.88109       -0.73268        0.04247
C          0.57267        1.47629       -0.00929
H          0.18441        2.01350        0.88379
H          0.25892        2.03410       -0.91645
N          0.50732       -0.70157       -1.21484
O          1.17092       -0.16369       -2.05354
O          0.20171       -1.84336       -1.36493
C          0.46260       -0.65766        1.18292
N          0.79133       -1.19851        2.15042
