15
Coordinates from ORCA-job run	Energy:     125.3748734
C          1.12483       -0.06697       -0.05205
H          1.32410        1.99447        0.59953
F         -1.76808       -0.16496       -0.40432
Cl         2.90689       -0.02628       -0.22043
C          0.58552        1.40288        0.02613
H         -0.36165        1.46461        0.59970
N          0.58115       -0.86415       -1.16459
O          0.62903       -0.42332       -2.27039
O          0.45354       -2.04094       -1.03045
C          0.76814       -0.73238        1.30200
H          1.17496       -1.75978        1.37020
H          1.14051       -0.13011        2.15634
H         -0.33714       -0.81039        1.41840
C          0.32920        2.13350       -1.22770
N          0.07191        2.71042       -2.19289
