19
Coordinates from ORCA-job run	Energy:      83.6700233
C         -0.01530       -0.00258       -0.02981
H          1.61463        1.48240       -0.17838
F         -1.39991        0.02183       -0.07936
H          3.36647       -0.28073        0.10139
C          0.51641        1.47958       -0.01363
N          0.48204       -0.74415       -1.19188
O          1.27419       -0.26215       -1.94546
O          0.12117       -1.86871       -1.37595
C          0.37851       -0.77248        1.24602
H          1.47813       -0.79298        1.38458
H         -0.09480       -0.31602        2.14035
H          0.00450       -1.81688        1.19621
C          0.30606        2.21326        1.32075
H         -0.76753        2.23647        1.60116
H          0.89263        1.72925        2.12943
H          0.68158        3.25630        1.23725
N         -0.12135        2.27264       -1.07430
H         -1.15069        2.35779       -0.89854
H          0.01927        1.84422       -2.01411
