16
Coordinates from ORCA-job run	Energy:      60.9962124
C          1.14017       -0.02634       -0.01053
H          1.09249        1.95679        0.88129
F         -2.44263       -0.04329       -0.51930
Br         3.06743        0.09094       -0.29047
C          0.54432        1.40304        0.08663
H         -0.52426        1.36097        0.39173
N          0.55017       -0.78918       -1.11171
O          0.73715       -0.44833       -2.24438
O         -0.04789       -1.80184       -0.91029
C          0.90675       -0.73395        1.34173
H          1.34571       -1.75398        1.32816
H          1.37625       -0.16365        2.17193
H         -0.18161       -0.82216        1.55042
N          0.65073        2.15188       -1.16384
H          0.38310        3.14407       -0.97299
H         -0.06758        1.79165       -1.83212
