18
Coordinates from ORCA-job run	Energy:     190.5874312
C          0.12842       -0.11219       -0.08183
H          1.58681        1.58489       -0.36907
Cl        -1.63566       -0.29933       -0.33748
F          2.80890       -0.15438        0.17336
C          0.52521        1.41474       -0.10968
N          0.80349       -0.82289       -1.17096
O          1.04007       -0.25414       -2.19340
O          0.91630       -2.01273       -1.14139
C          0.38869       -0.80898        1.28963
H          1.38145       -0.68289        1.78021
H         -0.37436       -0.44837        2.00901
H          0.23011       -1.89237        1.15499
C          0.31349        2.11382        1.23570
H         -0.71982        1.96181        1.59498
H          1.02791        1.70134        1.98218
H          0.51368        3.19809        1.14353
C         -0.23071        2.13968       -1.13587
N         -0.76880        2.78286       -1.91919
