15
Coordinates from ORCA-job run	Energy:      70.8810095
C          0.13578       -0.08584       -0.45404
H          1.32652        1.27079       -1.67977
F         -1.07244       -0.08508       -1.13345
H          3.30675       -0.28142        0.43474
C          0.84344        1.27747       -0.67906
H          1.64950        1.42968        0.07351
N          0.95007       -1.16905       -0.99197
O          1.19703       -1.19255       -2.16072
O          1.31266       -2.07589       -0.30368
N         -0.12709       -0.27744        0.98028
H          0.78021       -0.34754        1.50110
H         -0.64721       -1.17516        1.12371
N         -0.08573        2.38733       -0.64123
O         -0.72611        2.61624        0.33833
O         -0.24054        3.07225       -1.61251
