13
Coordinates from ORCA-job run	Energy:      39.3723278
C          1.30722       -0.06656       -0.04110
H          1.46005        1.93344        0.82927
F         -2.36008       -0.30681       -0.12801
Cl         3.08362       -0.21354       -0.19639
C          0.95542        1.43146       -0.02328
H         -0.14135        1.57393        0.08643
H          1.28557        1.91919       -0.96535
N          0.67136       -0.76613       -1.15581
O         -0.02852       -0.18629       -1.93082
O          0.86125       -1.93575       -1.30717
N          0.89289       -0.66611        1.22974
H          1.17408       -1.67308        1.26099
H         -0.14781       -0.61526        1.32681
