16
Coordinates from ORCA-job run	Energy:      60.4952805
C          1.17067       -0.05507       -0.12129
H          1.24067        1.96562        0.66838
F         -2.44634       -0.26508        0.03142
Cl         2.86608        0.04711       -0.69546
C          0.57669        1.37489       -0.00098
H         -0.42432        1.32802        0.47738
N          0.40682       -0.89635       -1.04836
O          0.37146       -0.63275       -2.21128
O         -0.11603       -1.90031       -0.66673
N          1.19354       -0.64561        1.22540
H          1.62089       -1.60013        1.19441
H          0.21959       -0.73191        1.60135
C          0.42307        2.14159       -1.31720
H          1.38940        2.21154       -1.85735
H         -0.33732        1.66363       -1.96762
H          0.06328        3.16935       -1.10043
