18
Coordinates from ORCA-job run	Energy:      96.4132959
C          1.09379       -0.04828        0.19512
H          1.65364        1.83532       -0.72575
Cl        -2.65990       -0.88996       -1.54421
F          2.34361       -0.13819        0.79494
C          0.80921        1.46419       -0.10221
N          1.13240       -0.86794       -1.02110
O          1.19137       -0.36567       -2.09747
O          1.25473       -2.05478       -0.92661
N          0.10578       -0.57628        1.13341
H          0.42075       -1.50739        1.49350
H         -0.82486       -0.69316        0.67029
C          0.80047        2.29148        1.19354
H         -0.01959        1.96615        1.86818
H          1.76258        2.18094        1.73638
H          0.64942        3.36639        0.95409
N         -0.43526        1.64051       -0.84492
O         -1.45343        1.84451       -0.25327
O         -0.37859        1.94648       -1.99869
