15
Coordinates from ORCA-job run	Energy:      54.5138858
C          0.84424        0.01423        0.10130
H          1.82234        1.80617       -0.59842
Br        -2.28371       -0.85504       -0.85039
Br         2.35188       -0.61496        1.15576
C          0.84631        1.54609       -0.11591
H         -0.06848       -0.27650        0.65955
C          0.95137       -0.64360       -1.20724
N          1.06603       -1.14159       -2.23977
N          0.72398        2.20618        1.17180
H          0.62960        3.24302        1.04222
H          1.57941        2.02865        1.74474
C         -0.28725        2.01487       -1.04598
H         -0.23282        1.54188       -2.05039
H         -1.26994        1.76879       -0.59455
H         -0.25071        3.11167       -1.20215
