12
Coordinates from ORCA-job run	Energy:      33.9392548
C          0.62690       -0.01907        0.11383
H          1.24555        1.92805       -0.65142
Br        -2.62650       -0.61145       -0.79886
F          3.21072       -0.11360        1.02561
C          0.44904        1.49794       -0.00102
H         -0.12579       -0.53763        0.74476
H         -0.53676        1.74882       -0.44995
C          0.90898       -0.69124       -1.16440
N          1.13357       -1.23691       -2.15219
N          0.55052        2.09319        1.32798
H          0.53661        3.13581        1.23803
H          1.47559        1.83102        1.74073
