13
Coordinates from ORCA-job run	Energy:     135.1969250
C          1.02997       -0.01632       -0.02876
H          1.75007        1.97349       -0.17257
Br        -2.19064       -0.23904        0.10542
Br         2.89809       -0.33142        0.42657
C          0.76521        1.50901       -0.05385
H          0.43027       -0.53748        0.75252
C          0.81019       -0.67184       -1.33784
N          0.64856       -1.21300       -2.35001
C          0.21943        2.02472        1.21846
N         -0.20693        2.48010        2.19520
N         -0.01994        1.97839       -1.20358
H          0.03961        3.02174       -1.26808
H         -1.02472        1.73048       -1.13662
