16
Coordinates from ORCA-job run	Energy:      59.8144033
C          0.21770       -0.06321       -0.05580
H          1.65800        1.63825       -0.22512
F         -1.14630       -0.22522       -0.09052
H          2.62380       -0.31194        0.31856
C          0.56716        1.44916       -0.08837
H          0.56223       -0.53105        0.90382
C          0.71867       -0.79300       -1.23129
N          1.09253       -1.34294       -2.17720
C          0.15393        2.08075        1.24287
H         -0.89608        1.81639        1.48434
H          0.80906        1.69479        2.05377
H          0.24943        3.18316        1.21407
C         -0.17614        2.10184       -1.25946
H          0.10176        1.60956       -2.21470
H         -1.27412        2.00118       -1.12744
H          0.07930        3.17446       -1.33084
