15
Coordinates from ORCA-job run	Energy:     112.1563130
C          1.00625        0.01208       -0.00963
H          1.74772        2.04169       -0.24512
F         -1.86669       -0.26584       -0.10307
Cl         2.65609       -0.31619        0.57485
C          0.76116        1.55530       -0.08217
H          0.32499       -0.47182        0.72277
C          0.82849       -0.69893       -1.28225
N          0.64504       -1.24939       -2.28850
C          0.17193        2.05924        1.25215
H         -0.85683        1.66072        1.40549
H          0.80188        1.72732        2.10334
H          0.11351        3.16689        1.26480
N         -0.08580        1.98398       -1.21154
H         -0.19826        3.02407       -1.18689
H         -1.03963        1.56754       -1.21560
