15
Coordinates from ORCA-job run	Energy:      86.8811022
C          0.32270        0.02197       -0.10109
H          1.71622        1.63373       -0.59506
Br        -2.55673       -0.74003       -1.00136
F          2.81769       -0.25016        1.23475
C          0.67952        1.51296       -0.20206
H          0.16824       -0.42120        0.90659
C          0.94578       -0.84915       -1.10741
N          1.43189       -1.54483       -1.90003
N          0.59073        2.13017        1.12234
H          0.82814        3.14600        1.05408
H          1.29627        1.69081        1.75640
C         -0.30579        2.20836       -1.14556
H         -0.31263        1.72533       -2.14535
H         -1.33337        2.16997       -0.72008
H         -0.02076        3.27404       -1.26921
