14
Coordinates from ORCA-job run	Energy:     181.6767749
C          1.03018       -0.04515       -0.02341
H          1.76776        1.97510        0.01597
Cl        -2.12098       -0.07932        0.01749
Cl         2.73544       -0.37221        0.32824
C          0.76741        1.50967       -0.00620
H          0.44429       -0.53687        0.79328
C          0.71762       -0.67702       -1.30982
N          0.48997       -1.24852       -2.30243
N          0.04399        1.91913        1.20068
O         -0.54524        2.95927        1.21081
O          0.34180        1.43299        2.25069
N          0.13528        2.03604       -1.23093
H          0.18025        3.08287       -1.22631
H         -0.86810        1.77003       -1.32544
