16
Coordinates from ORCA-job run	Energy:     134.0596920
C          0.99901       -0.03246        0.05581
H          1.78972        1.93009       -0.24975
F         -1.65054       -0.21339       -0.18693
F          2.30229       -0.23687        0.45952
C          0.77997        1.50681       -0.07756
H          0.37589       -0.47443        0.86868
C          0.81026       -0.78196       -1.20670
N          0.62134       -1.35404       -2.19411
C          0.16615        2.04254        1.22113
H         -0.85401        1.60948        1.33231
H          0.77210        1.73943        2.09489
H          0.06427        3.14945        1.20569
C         -0.08800        2.01745       -1.25007
H          0.25218        1.60926       -2.22055
H         -1.15444        1.77203       -1.12840
H         -0.02408        3.13005       -1.31062
