14
Coordinates from ORCA-job run	Energy:      92.8071614
C          0.10007       -0.04144       -0.16094
H          1.58991        1.59116       -0.45840
Br        -1.80964       -0.37612       -0.22771
Cl         3.04997       -0.26248        0.94786
C          0.51418        1.45584       -0.17105
H          0.41826       -0.51527        0.79191
C          0.71994       -0.75023       -1.28761
N          1.23424       -1.30195       -2.16524
N          0.34198        2.02338        1.16859
H          0.56319        3.04648        1.15705
H          1.05163        1.58514        1.80458
N         -0.29956        2.17512       -1.14596
H         -0.02751        3.18203       -1.18899
H         -1.29459        2.15379       -0.83684
