13
Coordinates from ORCA-job run	Energy:     144.2685317
C          0.28347       -0.11235        0.39413
H          0.96585        1.55953        1.56799
F         -0.93010       -0.28169        0.98809
F          2.60748       -0.10726       -0.69399
C          0.67983        1.39834        0.52727
H          1.52861        1.71300       -0.10817
C          0.05696       -0.46322       -1.05372
N         -0.14541       -0.81763       -2.14389
N          1.21648       -0.99813        1.11006
O          1.75390       -0.62200        2.11107
O          1.23914       -2.16400        0.85847
C         -0.48383        2.25056        0.21883
N         -1.37348        2.94236       -0.07534
