15
Coordinates from ORCA-job run	Energy:     107.4275829
C          1.14139        0.03132        0.07407
H          1.76473        2.03143       -0.44541
F         -1.92892       -0.71824       -0.56383
F          2.44733       -0.09571        0.51677
C          0.83886        1.56481       -0.04760
C          1.01924       -0.69304       -1.20561
N          0.92654       -1.26898       -2.20334
C          0.32377       -0.63890        1.09564
N         -0.27754       -1.16794        1.93453
N          0.53952        2.14225        1.26650
H          0.57325        3.18522        1.20450
H          1.25163        1.83744        1.96853
N         -0.21458        1.92319       -1.01088
H         -0.36761        2.95977       -0.97037
H         -1.13084        1.46186       -0.83908
