13
Coordinates from ORCA-job run	Energy:     104.9292006
C          0.59160       -0.02294        0.00512
H          1.76082        1.84681        0.13282
Cl        -2.34741       -0.11054        0.15777
F          3.41935       -0.13132       -0.10346
C          0.71372        1.49639        0.00960
H          0.11938        1.87308        0.87368
C          0.68568       -0.79491       -1.23976
N          0.72696       -1.37696       -2.24631
C          0.76131       -0.79780        1.24409
N          0.85972       -1.44674        2.20412
N          0.15812        2.03653       -1.22814
H          0.26013        3.07458       -1.23092
H         -0.86430        1.81683       -1.27563
