16
Coordinates from ORCA-job run	Energy:     186.3134686
C          1.17209        0.00938        0.01700
H          1.67274        2.10703        0.22741
F         -1.73754       -0.04813       -0.17936
Cl         2.94564       -0.09191       -0.10734
C          0.74781        1.52429        0.05309
C          0.71348       -0.73988       -1.17164
N          0.38818       -1.37317       -2.08353
C          0.74216       -0.75271        1.28846
H          1.04686       -1.81534        1.23100
H          1.19195       -0.27825        2.18301
H         -0.35478       -0.74526        1.45161
C         -0.09523        1.93591        1.20785
N         -0.74540        2.31305        2.09006
N          0.17486        1.99563       -1.21972
H          0.00483        3.02474       -1.17768
H         -0.75897        1.56639       -1.38635
