16
Coordinates from ORCA-job run	Energy:     170.7405273
C          0.07871       -0.18555       -0.12223
H          0.78389        1.81212       -0.84418
F         -1.15297       -0.50802       -0.62797
F          2.77413        0.28522        0.45562
C          0.14362        1.38146       -0.03422
H         -0.88366        1.75327       -0.23366
C          0.98287       -0.74168       -1.15110
N          1.67913       -1.20113       -1.95360
C          0.19935       -0.87051        1.24754
H          1.12195       -0.62299        1.82166
H         -0.67373       -0.55381        1.85730
H          0.16475       -1.95991        1.09141
C          0.57346        2.05955        1.29905
H         -0.10869        1.80922        2.13017
H          1.59562        1.78872        1.58160
H          0.57823        3.17572        1.18264
