18
Coordinates from ORCA-job run	Energy:     177.0598602
C          0.17461       -0.15133       -0.16000
H          1.46880        1.51018       -0.90137
Br        -1.58094       -0.58813       -0.92899
F          3.29274       -0.09004        0.59789
C          0.56143        1.38654       -0.25643
C          1.09834       -0.95809       -1.00793
N          1.86116       -1.54540       -1.62514
C          0.14213       -0.70275        1.26882
H          1.11534       -0.58085        1.78229
H         -0.63952       -0.16646        1.84696
H         -0.09913       -1.78140        1.26924
N          0.86914        1.98152        1.05228
H          1.09731        2.99569        0.93954
H          1.72774        1.54839        1.45482
C         -0.51534        2.25218       -0.92777
H         -0.72491        1.89210       -1.95957
H         -1.44970        2.22927       -0.31991
H         -0.17734        3.30800       -1.00564
