13
Coordinates from ORCA-job run	Energy:     121.7382180
C          0.11781       -0.01955        0.07855
H          1.51806        1.58504        0.75646
Cl        -1.65568        0.02186        0.15122
Cl         3.35472       -0.24602       -0.56037
C          0.67294        1.42659        0.04186
H         -0.12358        2.14301        0.31953
H          1.05858        1.71467       -0.96171
C          0.35420       -0.73868       -1.18490
N          0.52014       -1.33370       -2.16328
C          0.61991       -0.77851        1.31752
H          1.72221       -0.75560        1.43118
H          0.18847       -0.30517        2.21950
H          0.29865       -1.83945        1.27152
