15
Coordinates from ORCA-job run	Energy:      69.8057003
C          1.12292        0.01336        0.13512
H          1.10627        2.00195       -0.68921
F         -1.67129       -0.71762       -0.82647
Cl         2.85403        0.19005        0.50325
C          0.47346        1.40335       -0.00148
H         -0.53806        1.33370       -0.45314
C          1.07448       -0.69969       -1.15756
N          1.05779       -1.22944       -2.18755
N          0.49904       -0.75133        1.21996
H          0.96089       -1.67748        1.32807
H         -0.51051       -0.92358        1.05718
C          0.32949        2.11989        1.34626
H         -0.48773        1.65407        1.94099
H          1.26750        2.05847        1.93299
H          0.07530        3.18758        1.18572
