16
Coordinates from ORCA-job run	Energy:     112.6757616
C          1.41685       -0.01425       -0.03506
H          1.81541        1.95967       -0.58701
F         -2.33073        0.16863        1.15641
F          2.50062       -0.03599        0.81446
C          0.94620        1.45762       -0.15904
C          1.80779       -0.59453       -1.31566
N          2.14002       -1.02547       -2.33393
N          0.41890       -0.84519        0.53941
H          0.43502       -1.87370        0.38619
H         -1.47345       -0.20199        1.05291
C          0.71134        2.07612        1.16891
N          0.52780        2.56422        2.19245
C         -0.26740        1.68120       -1.07229
H         -0.10240        1.20041       -2.05444
H         -1.18973        1.27169       -0.63109
H         -0.42130        2.77005       -1.24243
