16
Coordinates from ORCA-job run	Energy:     118.1549225
C          0.27596       -0.13472       -0.05712
H          1.55423        1.41544       -0.16268
Cl        -1.37413       -0.65828        0.47350
H          2.94007        0.50335        0.53330
C          0.43174        1.37445       -0.10118
H          1.00233       -0.45373        0.69968
C          0.62405       -0.78772       -1.37508
H         -0.02297       -0.43381       -2.18200
H          1.66433       -0.51924       -1.58058
H          0.54240       -1.87457       -1.30485
C          0.06875        2.08095        1.19891
H         -0.99007        1.97218        1.44432
H          0.68124        1.64884        1.99421
H          0.30358        3.14596        1.12341
C         -0.22014        1.98220       -1.25178
N         -0.73589        2.49689       -2.17357
