13
Coordinates from ORCA-job run	Energy:      70.1290337
C          0.75274       -0.08851        0.10190
H          1.49540        1.77768       -0.61213
Cl        -2.16542       -0.12770       -0.68892
F          1.87027       -0.38358        0.84339
C          0.63124        1.42756       -0.01658
H         -0.11135       -0.51187        0.65301
H         -0.30884        1.73056       -0.54258
C          0.90262       -0.74053       -1.27934
H          0.62940       -1.81598       -1.24176
H          0.26193       -0.26698       -2.05309
H          1.96238       -0.64606       -1.58929
C          0.68147        2.06208        1.29477
N          0.72627        2.62570        2.31047
