14
Coordinates from ORCA-job run	Energy:      10.3589561
C          1.09180        0.00818        0.08307
H          0.93962        1.98459       -0.80067
Cl        -3.01013       -0.48657       -0.78916
F          2.42506        0.14821        0.42882
C          0.43478        1.39195       -0.00444
H          0.58084       -0.59812        0.86271
H         -0.63671        1.28631       -0.28018
C          0.99661       -0.73137       -1.24946
H         -0.06598       -0.87466       -1.53797
H          1.51513       -0.15904       -2.04792
H          1.47527       -1.72911       -1.15836
N          0.52918        2.08635        1.26308
O          1.10427        3.13011        1.33386
O          0.00984        1.63226        2.23782
