15
Coordinates from ORCA-job run	Energy:      67.5351289
C          0.66404        0.01025        0.03334
H          1.93589        1.68784       -0.35752
Br        -2.79101       -0.80469       -0.40029
H          1.36282       -0.36843        0.81352
C          0.87486        1.52286       -0.07060
H         -0.35864       -0.19372        0.37526
C          0.91517       -0.71719       -1.28298
H          1.08355       -1.79520       -1.10713
H          0.02076       -0.61496       -1.92660
H          1.80179       -0.30639       -1.80484
N          0.56777        2.14338        1.21561
H          1.07647        3.05140        1.29598
H          0.91355        1.53221        1.98850
C          0.08171        2.15535       -1.13526
N         -0.52639        2.67878       -1.96388
