15
Coordinates from ORCA-job run	Energy:     154.6949135
C          0.19683       -0.04754       -0.06862
H          1.62386        1.67168       -0.26276
F         -1.17695       -0.18490        0.01558
F          2.78920       -0.18989        0.37872
C          0.55709        1.45390       -0.08711
H          0.58105       -0.54262        0.85512
C          0.70252       -0.78493       -1.33156
H         -0.16489       -0.90059       -2.00285
H          1.50853       -0.24757       -1.89453
H          1.10671       -1.79342       -1.08859
C          0.23965        2.09525        1.18293
N          0.01509        2.58354        2.20704
N         -0.19883        2.08977       -1.17972
H         -0.17647        3.12241       -1.07176
H         -1.18100        1.78345       -1.10037
