13
Coordinates from ORCA-job run	Energy:     107.2999661
C          0.15250       -0.07733       -0.05915
H          1.44010        1.74451       -0.35632
F         -1.20293       -0.27193        0.08417
Br         3.29502       -0.20231        0.55728
C          0.41164        1.44233       -0.05009
H          0.61689       -0.59477        0.80848
H         -0.29424        1.89391       -0.78633
C          0.61705       -0.73245       -1.38351
H         -0.28616       -0.90042       -2.02209
H          1.34085       -0.11735       -1.96083
H          1.09547       -1.71696       -1.21136
C          0.19415        2.04309        1.26954
N          0.02765        2.54645        2.29863
