14
Coordinates from ORCA-job run	Energy:     106.7833502
C          0.19171       -0.06913       -0.07209
H          1.55726        1.66383       -0.37579
Br        -1.70766       -0.37211        0.18167
Br         3.24215       -0.13155        0.58049
C          0.50762        1.44605       -0.12119
H          0.62715       -0.51908        0.85842
C          0.69615       -0.78503       -1.35288
H         -0.11825       -0.72839       -2.09169
H          1.59847       -0.32486       -1.82046
H          0.95802       -1.84802       -1.17911
C          0.26762        2.04549        1.19557
N          0.07627        2.51838        2.23547
C         -0.26511        2.07543       -1.21618
N         -0.84924        2.60590       -2.06237
