17
Coordinates from ORCA-job run	Energy:      40.2263844
C          0.88897        0.03360        0.04253
H          1.77704        1.90568       -0.65878
Cl        -2.80662       -1.01668       -0.62652
Cl         2.32178       -0.43225        1.01206
C          0.84237        1.57493       -0.15341
H         -0.01830       -0.29455        0.59533
C          0.95645       -0.74696       -1.27522
H          0.04513       -0.59012       -1.88599
H          1.84921       -0.44501       -1.86279
H          1.01838       -1.83586       -1.06343
N          0.74024        2.24489        1.14771
H          0.72114        3.28160        1.00842
H          1.58348        2.04186        1.72855
C         -0.34744        2.01494       -1.02184
H         -0.27281        1.60457       -2.04841
H         -1.30555        1.69275       -0.56167
H         -0.35560        3.12119       -1.12049
