16
Coordinates from ORCA-job run	Energy:      42.6325747
C          0.76087        0.09314        0.04997
H          1.65831        1.85131       -0.86371
Br        -2.98359       -0.47405       -0.30651
H          3.55375        0.23780        0.58346
C          0.74791        1.60274       -0.27470
H         -0.12174       -0.19212        0.66019
C          0.89163       -0.83066       -1.15807
H         -0.01322       -0.79095       -1.79673
H          1.78721       -0.55965       -1.75502
H          1.00652       -1.87493       -0.80080
N          0.80625        2.36331        0.97720
H          1.68428        2.12183        1.49223
H         -0.01010        2.12049        1.58620
N         -0.42393        1.98830       -1.05207
O         -1.20157        2.79222       -0.62955
O         -0.57742        1.56077       -2.15668
