18
Coordinates from ORCA-job run	Energy:      28.4112497
C          0.21830       -0.11169       -0.09744
H          1.53828        1.58807       -0.39196
Cl        -1.49725       -0.51811        0.22441
F          3.50889        0.11844        0.94599
C          0.45966        1.42076       -0.17616
H          0.81963       -0.51339        0.74800
C          0.68341       -0.85139       -1.35490
H          0.09510       -0.55151       -2.24547
H          1.75949       -0.64864       -1.54200
H          0.55625       -1.94594       -1.21430
C          0.16485        2.08598        1.17657
H         -0.90427        1.97438        1.45568
H          0.79220        1.63114        1.97268
H          0.40466        3.17028        1.13072
C         -0.35753        2.10915       -1.28343
H         -0.10467        1.70048       -2.28184
H         -1.44755        1.98964       -1.10904
H         -0.12518        3.19571       -1.30541
