16
Coordinates from ORCA-job run	Energy:      40.5350204
C          0.16190       -0.07338       -0.06660
H          1.55843        1.57915       -0.21933
F         -1.18488       -0.29219        0.17100
Br         3.90356       -0.56157        0.53962
C          0.46316        1.44097       -0.07573
H          0.74324       -0.54770        0.75354
C          0.55558       -0.74794       -1.38154
H         -0.05060       -0.34956       -2.22233
H          1.63092       -0.57939       -1.59998
H          0.37588       -1.84126       -1.30762
N          0.08849        2.03774        1.20239
O         -0.71369        2.92125        1.25709
O          0.60370        1.65529        2.20816
N         -0.22519        2.09543       -1.19507
H          0.04091        3.10673       -1.22630
H         -1.26207        2.01512       -1.08692
