13
Coordinates from ORCA-job run	Energy:      84.5966913
C          0.26068       -0.04825       -0.05724
H          1.62882        1.53359       -0.23983
Cl        -1.45139       -0.33062        0.36676
Br         3.42244       -0.30986        0.40990
C          0.54170        1.44262       -0.12585
H          0.88383       -0.43749        0.75859
H          0.25792        1.91953        0.82488
C          0.60327       -0.76510       -1.35228
H         -0.27920       -0.73847       -2.00448
H          1.43186       -0.26317       -1.86029
H          0.92406       -1.79493       -1.15228
C         -0.16019        2.11993       -1.22688
N         -0.69652        2.68448       -2.07988
