17
Coordinates from ORCA-job run	Energy:      20.9204588
C          0.38917       -0.02309       -0.10256
H          1.57588        1.76433       -0.41995
Br        -3.03499       -0.78980        0.31860
Br         4.10044       -0.23169        0.94579
C          0.52253        1.50560       -0.17086
H          1.04176       -0.42413        0.70296
C          0.75956       -0.70381       -1.41732
H          0.08857       -0.36429       -2.23375
H          1.81331       -0.47856       -1.68641
H          0.64398       -1.80176       -1.30494
C          0.18121        2.12233        1.19096
H         -0.86469        1.88006        1.47854
H          0.86776        1.73223        1.97275
H          0.29487        3.22640        1.14863
N         -0.35766        2.04524       -1.20926
H         -0.23011        3.08112       -1.27585
H         -1.35717        1.84215       -0.97591
