18
Coordinates from ORCA-job run	Energy:     205.5363872
C          1.09782       -0.02819       -0.03298
H          1.56335        2.06185        0.37934
F         -1.69580       -0.31445        0.54620
Cl         2.87178       -0.04904       -0.33128
C          0.66709        1.50692        0.04806
C          0.52271       -0.82097       -1.25608
H         -0.57580       -0.81406       -1.38493
H          0.94464       -0.42485       -2.20520
H          0.83630       -1.88622       -1.20648
N          0.84786       -0.73787        1.22808
O          1.08917       -0.18469        2.25830
O          0.84887       -1.93388        1.23050
C         -0.32335        1.93714        1.06441
N         -1.04330        2.30731        1.89024
C          0.19359        2.08300       -1.28633
H          0.95143        1.90858       -2.06992
H         -0.77532        1.61737       -1.58490
H          0.02340        3.17696       -1.18566
