16
Coordinates from ORCA-job run	Energy:     197.3813720
C          1.09671       -0.02229       -0.00962
H          1.65315        2.02894       -0.15822
Cl        -2.21550       -0.19841        0.24808
Br         3.03616       -0.14967        0.14154
C          0.69389        1.51105       -0.03322
C          0.76226       -0.76685       -1.32451
H         -0.30748       -0.77171       -1.63066
H          1.32379       -0.27381       -2.14439
H          1.09021       -1.82578       -1.25311
C          0.67402       -0.76481        1.19868
N          0.42763       -1.34954        2.16839
C          0.17366        2.09922        1.23108
N         -0.23318        2.60863        2.18742
N         -0.09400        1.94541       -1.19179
H         -0.00451        2.98576       -1.28130
H         -1.11237        1.73939       -1.11480
