15
Coordinates from ORCA-job run	Energy:      32.2820717
C          1.16203        0.08053        0.01428
H          1.07711        2.02568       -0.95574
F         -2.43546       -0.24087        0.39151
H          2.24029        0.21048        0.25344
C          0.52043        1.47355       -0.16543
H         -0.53403        1.37820       -0.50259
C          1.03693       -0.73362       -1.27703
H         -0.03364       -0.89122       -1.53337
H          1.53001       -0.20362       -2.11991
H          1.52219       -1.72587       -1.15638
C          0.53755       -0.66503        1.11773
N          0.05060       -1.25218        1.98885
N          0.54890        2.26435        1.06507
H          1.51764        2.28454        1.45914
H         -0.10292        1.84956        1.77019
