15
Coordinates from ORCA-job run	Energy:      42.0415372
C          0.38376       -0.05565       -0.03836
H          1.71642        1.63265       -0.51122
Cl        -1.32009       -0.28616        0.48978
H          2.41935       -0.51123        0.81735
C          0.65633        1.46070       -0.22005
H          0.50105        1.95113        0.76883
C          0.60131       -0.85970       -1.32904
H         -0.12567       -0.57508       -2.11538
H          1.63172       -0.71107       -1.71770
H          0.45133       -1.94409       -1.13214
C          1.35057       -0.57901        1.00365
N          0.94707       -1.10325        2.10318
N         -0.20798        2.09056       -1.20381
O         -0.95450        2.95967       -0.87048
O         -0.10300        1.82188       -2.36153
