16
Coordinates from ORCA-job run	Energy:     131.4502239
C          0.17391       -0.08140       -0.01274
H          1.62241        1.60746       -0.15387
F         -1.20765       -0.20622        0.02825
H          2.91282       -0.19589        0.24515
C          0.53233        1.44092       -0.04663
C          0.67039       -0.78967       -1.29642
H         -0.16475       -0.83677       -2.02552
H          1.49258       -0.24432       -1.81276
H          1.01151       -1.83106       -1.11244
C          0.63223       -0.77329        1.21199
N          0.88451       -1.34369        2.18915
C          0.13010        2.11009        1.20665
N         -0.17564        2.62534        2.19924
N         -0.14125        2.06684       -1.18540
H         -0.01559        3.10456       -1.16650
H         -1.16540        1.86645       -1.13983
