15
Coordinates from ORCA-job run	Energy:     140.7130279
C          0.05397       -0.08748        0.00547
H          1.57093        1.52787       -0.02034
F         -1.32657       -0.12521        0.01753
Br         3.57645       -0.25944        0.17006
C          0.47210        1.39965        0.03619
H          0.05385        1.88501       -0.87437
C          0.56290       -0.72509       -1.29967
H         -0.29494       -0.83526       -1.98854
H          1.32036       -0.09369       -1.81976
H          1.03766       -1.71642       -1.13908
C          0.45345       -0.90249        1.17433
N          0.73373       -1.60074        2.05450
N         -0.02957        2.09993        1.19740
O         -0.45235        3.20623        1.06486
O          0.20852        1.69129        2.29042
