15
Coordinates from ORCA-job run	Energy:      28.1598368
C          0.07917       -0.06994        0.00766
H          1.53076        1.55224       -0.12279
Cl        -1.68111       -0.30197        0.21501
Br         4.28072       -0.30821        0.11981
C          0.42621        1.43397       -0.05346
H          0.08791        1.94178        0.87829
C          0.53727       -0.79816       -1.26340
H          0.01235       -0.39451       -2.15503
H          1.63088       -0.67612       -1.41707
H          0.31025       -1.88428       -1.19416
C          0.74537       -0.66918        1.17577
N          1.26983       -1.13897        2.09476
N         -0.18168        2.08909       -1.21055
H          0.13275        3.08592       -1.23167
H         -1.22193        2.08831       -1.11178
