18
Coordinates from ORCA-job run	Energy:     148.8670745
C         -0.03414       -0.11260       -0.08902
H          1.52825        1.30132       -0.40702
Br        -1.97398       -0.20261       -0.27124
F          3.17605        0.43277        0.67664
C          0.49257        1.34069       -0.07488
C          0.64924       -0.83468       -1.25447
H          0.29205       -1.87683       -1.34718
H          0.48342       -0.30273       -2.21279
H          1.74485       -0.84608       -1.04793
C          0.34396       -0.83174        1.20664
H          1.41980       -0.72245        1.39102
H         -0.19717       -0.38349        2.06370
H          0.10697       -1.91012        1.15240
N          0.47543        1.94002        1.25999
H          0.43772        2.97981        1.20411
H          1.41908        1.72970        1.67206
C         -0.11495        2.20748       -1.08289
N         -0.56420        2.92484       -1.86717
