17
Coordinates from ORCA-job run	Energy:      31.4304246
C          0.15511       -0.02300       -0.01631
H          1.82757        1.41523        0.09474
Cl        -3.18492        0.08789        0.07733
Cl         4.26264       -0.18311        0.12585
C          0.71411        1.41366        0.09108
H          0.38404        1.95282       -0.82659
C          0.65745       -0.71872       -1.28340
H          0.03344       -1.61541       -1.48380
H          0.57628       -0.04682       -2.16670
H          1.71486       -1.03433       -1.17422
C          0.43773       -0.90468        1.21008
H          1.52652       -0.98384        1.39229
H         -0.06315       -0.50602        2.11164
H          0.02615       -1.92492        1.04449
N          0.22576        2.12084        1.25394
O         -0.46403        3.08724        1.12046
O          0.58763        1.80995        2.34946
