18
Coordinates from ORCA-job run	Energy:     263.1005636
C          0.23912       -0.03643       -0.00226
H          1.70205        1.74776       -0.00375
F         -1.14575       -0.04480       -0.02175
H          2.86976       -0.06122        0.09260
C          0.61605        1.48247        0.00089
C          0.67361       -0.80730       -1.28804
H         -0.21236       -1.35832       -1.66223
H          0.99186       -0.13201       -2.11213
H          1.46750       -1.57869       -1.15348
C          0.59743       -0.83216        1.29565
H          1.30119       -1.68285        1.15571
H          0.97058       -0.18825        2.12218
H         -0.34246       -1.28939        1.67552
C          0.02300        2.08068        1.21854
N         -0.42724        2.58583        2.15420
N          0.00685        2.10149       -1.20176
H          0.01854        3.13633       -1.14535
H         -0.99641        1.80733       -1.29861
