18
Coordinates from ORCA-job run	Energy:     125.2272257
C          0.39921       -0.05052       -0.01184
H          1.78996        1.68920       -0.00698
Cl        -2.45867       -0.02064       -0.00565
F          3.24014       -0.08536        0.03576
C          0.72519        1.46368       -0.00346
C          0.66651       -0.82963       -1.30265
H         -0.04480       -1.68115       -1.32025
H          0.42424       -0.19566       -2.18102
H          1.69699       -1.22771       -1.42114
C          0.61018       -0.85290        1.29528
H          1.66182       -1.10497        1.53783
H          0.16873       -0.29692        2.14393
H          0.02606       -1.79283        1.20259
C          0.16654        2.11694        1.19582
N         -0.24679        2.60234        2.14191
N          0.12401        2.09602       -1.20613
H          0.35981        3.11207       -1.21072
H         -0.90424        1.99188       -1.19781
