18
Coordinates from ORCA-job run	Energy:     231.2505124
C          1.22920       -0.01236       -0.00664
H          1.73110        2.04119       -0.42838
Cl        -2.66763        0.15354        0.37452
Cl         3.00725       -0.09803        0.22859
C          0.84761        1.49489       -0.08067
C          0.90423       -0.71882       -1.33014
H         -0.19581       -0.73352       -1.48081
H          1.37794       -0.19910       -2.18309
H          1.26778       -1.76482       -1.28887
C          0.54385       -0.77736        1.14796
H          1.23523       -0.89790        2.00901
H         -0.35498       -0.25887        1.51784
H          0.19662       -1.77494        0.83375
C          0.51070        2.05743        1.24889
N          0.28500        2.47544        2.28729
N         -0.16267        1.78684       -1.08576
H         -0.31633        2.80904       -1.17187
H         -1.06957        1.40386       -0.82182
