19
Coordinates from ORCA-job run	Energy:      65.7153951
C          1.21518       -0.00285        0.07306
H          1.55327        1.92718       -0.87613
Cl        -3.24119       -0.38273       -0.24667
H          2.26663        0.01686        0.43216
C          0.80896        1.48106       -0.18140
C          1.17830       -0.85878       -1.20148
H          0.13833       -0.99809       -1.56365
H          1.78768       -0.39025       -2.00068
H          1.58865       -1.86930       -0.99171
C          0.38119       -0.67688        1.17410
H          0.78944       -1.68983        1.38575
H          0.42920       -0.10005        2.12280
H         -0.67889       -0.78173        0.87242
N          0.87066        2.23850        1.08083
H          0.72304        3.25592        0.88643
H          1.81724        2.13396        1.51465
N         -0.50964        1.62938       -0.79170
O         -1.37174        2.25215       -0.24611
O         -0.69173        1.24733       -1.90702
