16
Coordinates from ORCA-job run	Energy:     377.8976057
C          0.53948       -0.07468        0.01328
H          1.45954        1.78941       -0.48592
Br        -2.07593       -0.09586       -0.02302
Br         3.30708        0.13012        0.14716
C          0.53282        1.45003       -0.04143
H         -0.29146        1.77051       -0.67294
C          0.75268       -0.79926       -1.29521
H         -0.20191       -1.13249       -1.68871
H          1.23096       -0.14481       -2.01994
H          1.40049       -1.65398       -1.13430
C          0.51827       -0.86388        1.29471
H          1.52581       -1.14651        1.56854
H          0.06344       -0.28768        2.09994
H         -0.07426       -1.76208        1.14031
C          0.37468        2.08819        1.26464
N          0.24572        2.63056        2.30249
