17
Coordinates from ORCA-job run	Energy:      29.2177964
C          1.20205       -0.01142        0.16602
H          0.96959        1.95811       -0.75260
Br        -3.06972       -0.50524       -0.74435
F          2.54984        0.16131        0.43645
C          0.52260        1.37238        0.08113
H         -0.56211        1.24671       -0.13011
C          1.07197       -0.73971       -1.17851
H          0.00467       -0.91129       -1.43479
H          1.53892       -0.13974       -1.98840
H          1.58869       -1.72230       -1.13533
C          0.57803       -0.86494        1.27929
H          1.09593       -1.84740        1.34464
H          0.67636       -0.36268        2.26406
H         -0.49990       -1.04807        1.08011
N          0.68167        2.12137        1.32651
H          0.19875        3.04295        1.22246
H          1.69610        2.31421        1.48690
