17
Coordinates from ORCA-job run	Energy:      87.6123631
C          0.09827       -0.06827       -0.00517
H          1.68041        1.52546        0.02624
Cl        -1.68952       -0.05844       -0.03665
F          3.16015       -0.17597        0.03512
C          0.58671        1.41907       -0.00900
C          0.57044       -0.82567       -1.27900
H          0.07533       -1.81067       -1.33236
H          0.30208       -0.25788       -2.19191
H          1.65380       -1.02434       -1.36867
C          0.53352       -0.83097        1.27822
H          1.61515       -1.02356        1.39804
H          0.23493       -0.26847        2.18326
H          0.04454       -1.82026        1.30872
C          0.09073        2.15482        1.17450
N         -0.23755        2.65247        2.16804
C          0.17774        2.13704       -1.21130
N         -0.19172        2.69020       -2.14946
