20
Coordinates from ORCA-job run	Energy:      41.7343230
C          0.12766       -0.10464       -0.01617
H          1.68054        1.42910       -0.08285
Br        -3.37897       -0.34192       -0.13478
F          3.98199       -0.01841        0.29305
C          0.57098        1.38334       -0.01769
C          0.63068       -0.82868       -1.27402
H          0.25356       -1.87297       -1.28979
H          0.26242       -0.32644       -2.19223
H          1.74144       -0.84764       -1.29534
C          0.56383       -0.88134        1.23420
H          1.66812       -0.87138        1.34200
H          0.09713       -0.45769        2.14583
H          0.21710       -1.93406        1.16343
C          0.14444        2.13887        1.25184
H         -0.95800        2.10032        1.37949
H          0.63531        1.71623        2.15180
H          0.46114        3.20149        1.18327
N          0.01005        2.05189       -1.19465
H          0.34991        3.03963       -1.24343
H         -1.03504        2.05922       -1.14165
