17
Coordinates from ORCA-job run	Energy:     236.8211052
C          1.11371       -0.02237       -0.01961
H          1.74543        2.02930       -0.16793
F         -1.67611       -0.08660        0.11470
H          2.22320       -0.04728        0.01536
C          0.76727        1.51551       -0.03973
C          0.81643       -0.78799       -1.33183
H         -0.24769       -0.87699       -1.65681
H          1.35229       -0.26878       -2.15482
H          1.22984       -1.80957       -1.24335
N          0.71952       -0.72099        1.22921
H          1.45343       -1.41891        1.48448
H         -0.18300       -1.24566        1.23771
C          0.18757        2.02725        1.22269
N         -0.26390        2.46239        2.19143
N         -0.05618        1.95512       -1.17618
H         -0.17016        2.99479       -1.12431
H         -1.02815        1.59093       -1.14414
