18
Coordinates from ORCA-job run	Energy:     136.9541934
C          1.15335        0.11723       -0.03931
H          1.74128        2.15612       -0.36022
F         -2.55857       -0.16505        0.35754
F          4.12001       -0.01741       -0.17232
C          0.78779        1.63070       -0.12838
C          0.77362       -0.75119       -1.24236
H         -0.33131       -0.85690       -1.30911
H          1.15398       -0.30078       -2.18239
H          1.21688       -1.76188       -1.13295
N          0.80586       -0.50810        1.23603
H          1.42181       -1.34268        1.37144
H         -0.18990       -0.82282        1.22381
N          0.25951        2.17563        1.12585
H          0.94611        2.02404        1.90005
H         -0.64286        1.70238        1.36812
N         -0.13699        1.92253       -1.22578
H         -0.25254        2.95987       -1.30972
H         -1.07340        1.50353       -1.03008
