14
Coordinates from ORCA-job run	Energy:      71.2764280
C          0.04308       -0.07262       -0.09249
H          1.61823        1.43488       -0.04183
Cl        -1.73636       -0.19381        0.05638
F          3.05487       -0.37677        0.41414
C          0.50972        1.40852       -0.02730
H          0.47685       -0.63179        0.76915
N          0.46946       -0.71373       -1.34102
H          0.00837       -1.64733       -1.43268
H          1.50101       -0.88377       -1.32219
N          0.06508        2.04175        1.20935
O         -0.27925        3.18859        1.20872
O          0.27315        1.50410        2.25371
C          0.06660        2.15954       -1.21635
N         -0.27168        2.73271       -2.16733
