16
Coordinates from ORCA-job run	Energy:      45.6821897
C         -0.04903        0.04457       -0.01146
H          1.59711        1.46205       -0.07478
F         -1.42958        0.04129        0.10641
H          3.44371       -0.78648        0.00091
C          0.48781        1.49340        0.01035
H          0.37774       -0.51755        0.85028
N          0.32659       -0.63305       -1.24994
H         -0.03270       -1.61465       -1.21685
H          1.36882       -0.67945       -1.31780
C          0.14560        2.18122        1.33517
H         -0.95495        2.24910        1.47169
H          0.57813        1.61391        2.18723
H          0.56858        3.20786        1.34749
N         -0.04485        2.28276       -1.10356
H         -1.08910        2.31570       -1.06222
H          0.24638        1.86124       -2.01443
