15
Coordinates from ORCA-job run	Energy:     230.6509431
C          1.11848       -0.04820        0.03599
H          1.62312        2.03096        0.18977
Cl        -2.18822       -0.29497        0.14027
F          2.50384       -0.03810        0.08577
C          0.68038        1.48074        0.04286
N          0.76652       -0.72622       -1.23459
H         -0.16702       -1.19622       -1.25536
H          1.47787       -1.46165       -1.45023
N          0.67176       -0.81277        1.20260
O          0.82522       -0.33146        2.28523
O          0.67332       -2.00560        1.12925
C         -0.12269        2.03061        1.16025
N         -0.73617        2.53669        2.00103
C          0.16433        2.00170       -1.22915
N         -0.23907        2.45785       -2.21619
