19
Coordinates from ORCA-job run	Energy:      81.1369951
C          0.02352       -0.14109       -0.06333
H          1.56042        1.40937       -0.20120
Br        -1.92527       -0.33086       -0.08667
F          3.46028        0.08699        1.13549
C          0.45441        1.37013       -0.09079
N          0.54374       -0.78533       -1.28258
H          0.25837       -1.79124       -1.31037
H          1.58947       -0.73791       -1.29753
N          0.52358       -0.83165        1.12618
O          0.10028       -0.54937        2.20337
O          1.27000       -1.76214        1.02847
C          0.11652        2.15371        1.18964
H         -0.97292        2.13427        1.39875
H          0.67308        1.75356        2.06023
H          0.44144        3.21148        1.08422
C         -0.15216        2.10976       -1.30011
H          0.11159        1.60461       -2.25192
H         -1.25880        2.16818       -1.22194
H          0.23697        3.14923       -1.34983
