14
Coordinates from ORCA-job run	Energy:      30.5839216
C          1.21322       -0.14513        0.35069
H          0.90714        1.77006       -0.65637
F         -1.90124        0.30701       -2.32059
Br         3.12918        0.09629        0.57552
C          0.49494        1.20996        0.21346
H         -0.58446        1.02406        0.02020
N          0.97710       -0.92750       -0.85851
H         -1.27975       -0.45095       -2.22473
H          1.39413       -1.88126       -0.74689
C          0.68965       -0.88263        1.51216
N          0.27616       -1.45708        2.42422
N          0.61630        2.01802        1.42602
H          0.03971        2.88235        1.30533
H          1.60893        2.31551        1.55688
