14
Coordinates from ORCA-job run	Energy:      42.2439925
C          1.14359       -0.06484        0.20204
H          1.16894        1.93009       -0.67210
F         -2.47697       -0.49759       -0.45100
F          2.46478       -0.00202        0.61275
C          0.58130        1.36290        0.08408
H         -0.47527        1.32377       -0.26139
N          1.08953       -0.72435       -1.10326
H          0.09714       -0.83105       -1.41946
H          1.52109       -1.67549       -1.03838
C          0.37722       -0.84484        1.19205
N         -0.22287       -1.45533        1.97075
N          0.63544        2.06396        1.36538
H          0.23461        3.02105        1.23707
H          1.63290        2.17416        1.65919
