13
Coordinates from ORCA-job run	Energy:      67.6993645
C          0.07571       -0.05715       -0.11171
H          1.74745        1.37647       -0.46921
F         -1.30553        0.02683       -0.15336
F          3.08290       -0.32278        0.54933
C          0.67720        1.37122       -0.16589
H          0.60360        1.86693        0.82552
N          0.53688       -0.85259       -1.25715
H          0.05686       -1.78176       -1.27189
H          1.57014       -1.02467       -1.22035
C          0.38662       -0.72631        1.16763
N          0.57681       -1.23935        2.18626
C         -0.08859        2.20422       -1.09958
N         -0.73731        2.85317       -1.80371
