15
Coordinates from ORCA-job run	Energy:     155.1059522
C          0.52140       -0.04065        0.00873
H          1.78092        1.75731        0.13688
Cl        -2.33491        0.06948        0.14752
F          3.22204       -0.24237        0.03248
C          0.71045        1.49923        0.05354
N          0.59726       -0.71454       -1.28331
H         -0.25257       -1.32100       -1.35183
H          1.44586       -1.31479       -1.37299
C          0.59440       -0.89289        1.22377
N          0.62793       -1.58068        2.15627
N          0.02269        2.07094        1.21510
O         -0.76619        2.95922        1.09018
O          0.31927        1.71367        2.31604
C          0.22927        2.09157       -1.21826
N         -0.12456        2.53852       -2.23259
