17
Coordinates from ORCA-job run	Energy:      85.8086626
C          0.32124       -0.03981        0.06767
H          1.81631        1.57916       -0.11009
Cl        -2.73567       -0.08208        0.80399
H          3.54196        0.18280       -0.15250
C          0.71488        1.45850       -0.07942
N          0.64690       -0.83541       -1.11628
H          0.06285       -0.48099       -1.90865
H          0.26479       -1.79625       -0.95819
C          0.88177       -0.68357        1.34763
H          1.91391       -0.34136        1.57131
H          0.21985       -0.42496        2.19894
H          0.89378       -1.79166        1.26340
N          0.19309        2.26190        1.02396
H          0.73163        2.06283        1.89825
H         -0.81294        2.02971        1.19120
C          0.21331        2.00520       -1.35515
N         -0.16475        2.40585       -2.36395
