15
Coordinates from ORCA-job run	Energy:     111.1576261
C          0.46054       -0.06645       -0.00739
H          2.71570        1.25973        0.02359
Br        -2.59290       -1.32075        0.53755
H          3.37806        1.21971        0.14339
C          0.51499        1.27006       -0.09582
H          0.70632        1.84202        0.80296
N          0.15197       -0.85031       -1.12951
H         -0.02474       -0.40135       -2.02780
H         -0.35741       -1.71248       -0.93211
C          0.65961       -0.75758        1.30485
H          1.71928       -0.65270        1.60983
H         -0.00372       -0.31320        2.06325
H          0.41103       -1.83698        1.22149
C          0.41578        1.98972       -1.34285
N          0.32622        2.54499       -2.35882
